Program Version,EnergyPlus, Version 9.6.0-f420c06a69, YMD=2024.05.14 12:32
1,5,Environment Title[],Latitude[deg],Longitude[deg],Time Zone[],Elevation[m]
2,8,Day of Simulation[],Month[],Day of Month[],DST Indicator[1=yes 0=no],Hour[],StartMinute[],EndMinute[],DayType
3,5,Cumulative Day of Simulation[],Month[],Day of Month[],DST Indicator[1=yes 0=no],DayType  ! When Daily Meters Requested
4,2,Cumulative Days of Simulation[],Month[]  ! When Monthly Meters Requested
5,1,Cumulative Days of Simulation[] ! When Run Period Meters Requested
6,1,Calendar Year of Simulation[] ! When Annual Meters Requested
11,1,Electricity:Facility [J] !TimeStep
133,1,InteriorEquipment:Electricity [J] !TimeStep
95,1,General:InteriorLights:Electricity [J] !TimeStep
169,1,dishwasher:InteriorEquipment:Electricity [J] !TimeStep
206,1,refrigerator:InteriorEquipment:Electricity [J] !TimeStep
243,1,clotheswasher:InteriorEquipment:Electricity [J] !TimeStep
354,1,television:InteriorEquipment:Electricity [J] !TimeStep
554,1,Heating:Electricity [J] !TimeStep
515,1,Cooling:Electricity [J] !TimeStep
End of Data Dictionary
1,ANNUAL,  46.78, -71.29,  -5.00,  91.40
2,1, 1,12, 0, 1, 0.00,60.00,Sunday
11,28675466.384952553
95,125478.927830319
133,2796420.9730918175
169,29359.646160636934
206,262245.8146182114
243,9989.88619413263
354,0.0
515,0.0
554,24033392.197015792
2,1, 1,12, 0, 2, 0.00,60.00,Sunday
11,31001334.54365445
95,125478.927830319
133,2548022.4218731336
169,13044.481225768317
206,256573.49569035263
243,7989.769793380162
354,0.0
515,0.0
554,26607658.90693637
2,1, 1,12, 0, 3, 0.00,60.00,Sunday
11,31654879.67052345
95,125478.927830319
133,2470158.126630023
169,9773.797516668043
206,250967.13395932948
243,3989.536991875235
354,0.0
515,0.0
554,27339068.329048485
2,1, 1,12, 0, 4, 0.00,60.00,Sunday
11,33806434.51947387
95,125478.927830319
133,2410523.9275373416
169,6522.2406128841585
206,243513.97071691064
243,3989.536991875235
354,0.0
515,0.0
554,29550257.37709159
2,1, 1,12, 0, 5, 0.00,60.00,Sunday
11,35033755.219996765
95,376436.783490957
133,2370606.4288550545
169,6522.2406128841585
206,239754.41049728324
243,7989.769793380162
354,0.0
515,0.0
554,30562992.062279828
2,1, 1,12, 0, 6, 0.00,60.00,Sunday
11,35186733.81281758
95,784243.2989394937
133,2663498.559526247
169,19566.721838652476
206,239754.41049728324
243,11990.002594885089
354,0.0
515,0.0
554,30009510.314151924
2,1, 1,12, 0, 7, 0.00,60.00,Sunday
11,39835212.84987643
95,878352.4948122329
133,3235511.293614676
169,39152.57048262144
206,249120.3324479338
243,23980.005189770178
354,0.0
515,0.0
554,32475599.22671927
2,1, 1,12, 0, 8, 0.00,60.00,Sunday
11,41025910.92397585
95,784243.2989394937
133,3715560.114307474
169,58738.41912658998
206,262245.8146182114
243,51970.93899067497
354,0.0
515,0.0
554,33255093.871575408
2,1, 1,12, 0, 9, 0.00,60.00,Sunday
11,37693845.3379141
95,345067.0515333772
133,3546272.4934641644
169,110973.72444561248
206,267852.1763492346
243,77961.75639082717
354,0.0
515,0.0
554,31391714.754314896
2,1, 1,12, 0,10, 0.00,60.00,Sunday
11,38327037.83552885
95,235272.9896818481
133,3425527.3942351257
169,124018.20567138083
206,271611.73656886193
243,91962.57119609449
354,0.0
515,0.0
554,32269448.754022293
2,1, 1,12, 0,11, 0.00,60.00,Sunday
11,40057084.57198107
95,235272.9896818481
133,3504880.3634630083
169,107703.04073651227
206,262245.8146182114
243,89962.45479534201
354,0.0
515,0.0
554,33070412.0051919
2,1, 1,12, 0,12, 0.00,60.00,Sunday
11,39127422.64493104
95,235272.9896818481
133,3551275.3752665804
169,91387.87580164369
206,262245.8146182114
243,79961.87279157966
354,0.0
515,0.0
554,32389019.034975223
2,1, 1,12, 0,13, 0.00,60.00,Sunday
11,35319146.97855505
95,235272.9896818481
133,3483403.3656293917
169,78324.26777055899
206,275305.33959165344
243,71961.40718856991
354,0.0
515,0.0
554,30034417.969391674
2,1, 1,12, 0,14, 0.00,60.00,Sunday
11,35319198.39462921
95,235272.9896818481
133,3428281.0622745813
169,88117.19209254326
206,275305.33959165344
243,63971.63739518969
354,0.0
515,0.0
554,30089591.688820638
2,1, 1,12, 0,15, 0.00,60.00,Sunday
11,39055833.3497866
95,235272.9896818481
133,3441787.762316192
169,71802.02715767492
206,271611.73656886193
243,55971.17179217984
354,0.0
515,0.0
554,32153051.655239955
2,1, 1,12, 0,16, 0.00,60.00,Sunday
11,37952916.03107757
95,407806.5154485367
133,3606889.4369994397
169,68531.3434485745
206,275305.33959165344
243,51970.93899067497
354,0.0
515,0.0
554,31152142.079637304
2,1, 1,12, 0,17, 0.00,60.00,Sunday
11,36200399.48484406
95,878352.4948122329
133,4245443.608567559
169,71802.02715767492
206,290343.58047016273
243,53971.055391427355
354,0.0
515,0.0
554,29501464.978074096
2,1, 1,12, 0,18, 0.00,60.00,Sunday
11,36999001.19043548
95,1223419.5463456102
133,5221155.125444132
169,94639.43270542756
206,318441.34632211406
243,51970.93899067497
354,0.0
515,0.0
554,28561888.73454
2,1, 1,12, 0,19, 0.00,60.00,Sunday
11,39961873.71912797
95,1646910.9277729366
133,5365259.212439732
169,166460.58666841884
206,327807.2682727643
243,51970.93899067497
354,0.0
515,0.0
554,29537107.252896737
2,1, 1,12, 0,20, 0.00,60.00,Sunday
11,39782322.64534651
95,1825148.0411682762
133,5174077.296903736
169,212154.52456924066
206,318441.34632211406
243,51970.93899067497
354,0.0
515,0.0
554,29641989.01299853
2,1, 1,12, 0,21, 0.00,60.00,Sunday
11,36233232.00240992
95,1825148.0411682762
133,5122056.543444246
169,172982.8272813029
206,309075.4243714635
243,51970.93899067497
354,0.0
515,0.0
554,27541839.353733275
2,1, 1,12, 0,22, 0.00,60.00,Sunday
11,40572362.142906025
95,1380268.2061335088
133,4933510.452141945
169,127288.88938048104
206,303403.1054436047
243,49970.82258992248
354,0.0
515,0.0
554,31529050.930376835
2,1, 1,12, 0,23, 0.00,60.00,Sunday
11,42551956.45692678
95,768558.4329607037
133,4195576.480866236
169,84846.50838344306
206,290343.58047016273
243,33980.58719353241
354,0.0
515,0.0
554,34237761.315528825
2,1, 1,12, 0,24, 0.00,60.00,Sunday
11,39232614.772658736
95,313697.3195757975
133,3488143.8526281044
169,58738.41912658998
206,271611.73656886193
243,17990.35179714245
354,0.0
515,0.0
554,33707940.06967298
End of Data
 Number of Records Written=         216
