Program Version,EnergyPlus, Version 9.6.0-f420c06a69, YMD=2024.05.14 12:32
1,5,Environment Title[],Latitude[deg],Longitude[deg],Time Zone[],Elevation[m]
2,8,Day of Simulation[],Month[],Day of Month[],DST Indicator[1=yes 0=no],Hour[],StartMinute[],EndMinute[],DayType
3,5,Cumulative Day of Simulation[],Month[],Day of Month[],DST Indicator[1=yes 0=no],DayType  ! When Daily Report Variables Requested
4,2,Cumulative Days of Simulation[],Month[]  ! When Monthly Report Variables Requested
5,1,Cumulative Days of Simulation[] ! When Run Period Report Variables Requested
6,1,Calendar Year of Simulation[] ! When Annual Report Variables Requested
7,1,Environment,Site Outdoor Air Drybulb Temperature [C] !TimeStep
8,1,Environment,Site Outdoor Air Dewpoint Temperature [C] !TimeStep
9,1,Environment,Site Outdoor Air Wetbulb Temperature [C] !Hourly
4348,1,LIVING_UNIT1_FRONTROW_BOTTOMFLOOR,Zone Mean Air Temperature [C] !TimeStep
11,1,Electricity:Facility [J] !TimeStep
3083,1,NaturalGas:Facility [J] !TimeStep
779,1,InteriorEquipment:Electricity [J] !TimeStep
95,1,General:InteriorLights:Electricity [J] !TimeStep
815,1,dishwasher:InteriorEquipment:Electricity [J] !TimeStep
852,1,refrigerator:InteriorEquipment:Electricity [J] !TimeStep
889,1,clotheswasher:InteriorEquipment:Electricity [J] !TimeStep
926,1,gas_dryer:InteriorEquipment:Electricity [J] !TimeStep
963,1,gas_range:InteriorEquipment:Electricity [J] !TimeStep
1000,1,television:InteriorEquipment:Electricity [J] !TimeStep
3131,1,InteriorEquipment:NaturalGas [J] !TimeStep
6810,1,Heating:Electricity [J] !TimeStep
6785,1,Heating:NaturalGas [J] !TimeStep
6935,1,Cooling:Electricity [J] !TimeStep
End of Data Dictionary
1,ANNUAL,  46.78, -71.29,  -5.00,  91.40
2,1, 1,12, 0, 1, 0.00,60.00,Sunday
7,-2.0
8,-2.000002335045541
4348,22.000000000000004
11,38100727.71107565
95,913962.7514959001
779,27352700.548185937
815,438473.423252895
852,4720424.663127804
889,149180.07309967247
926,127842.46852420052
963,0.0
1000,0.0
3083,87809894.38940834
3131,5851976.339584516
6785,74474266.37856092
6810,0.0
6935,0.0
2,1, 1,12, 0, 1, 0.00,60.00,Sunday
9,-2.000002335045541
2,1, 1,12, 0, 2, 0.00,60.00,Sunday
7,-4.2
8,-4.2
4348,22.000000000000004
11,36509797.21532726
95,913962.7514959001
779,25188735.308325555
815,194813.59912604262
852,4618322.922426349
889,119312.11413860306
926,76705.48111452046
963,0.0
1000,0.0
3083,98087347.87230736
3131,4661436.341888673
6785,89397636.2090646
6810,0.0
6935,0.0
2,1, 1,12, 0, 2, 0.00,60.00,Sunday
9,-4.2
2,1, 1,12, 0, 3, 0.00,60.00,Sunday
7,-5.9
8,-6.198630539634405
4348,21.999999999999996
11,36315682.434822224
95,913962.7514959001
779,24719704.00179709
815,145967.37412523094
852,4517408.4112679325
889,59576.19621646439
926,51136.98740968035
963,0.0
1000,0.0
3083,102513084.73426998
3131,3430522.5199065423
6785,96497978.72711569
6810,0.0
6935,0.0
2,1, 1,12, 0, 3, 0.00,60.00,Sunday
9,-6.198630539634405
2,1, 1,12, 0, 4, 0.00,60.00,Sunday
7,-7.2
8,-7.555630191230219
4348,22.0
11,36154859.37969421
95,913962.7514959001
779,24230658.60467579
815,97406.7995630209
852,4383251.47290439
889,59576.19621646439
926,25568.493704840123
963,0.0
1000,0.0
3083,110841100.9235814
3131,2885363.2943852283
6785,105026551.36970623
6810,0.0
6935,0.0
2,1, 1,12, 0, 4, 0.00,60.00,Sunday
9,-7.555630191230219
2,1, 1,12, 0, 5, 0.00,60.00,Sunday
7,-8.0
8,-8.48978480259312
4348,22.0
11,37406985.85832497
95,2741888.254487699
779,23505448.378342796
815,97406.7995630209
852,4315579.388951098
889,119312.11413860306
926,51136.98740968035
963,0.0
1000,0.0
3083,118907906.45022263
3131,4033008.4681529924
6785,108887563.60699962
6810,0.0
6935,0.0
2,1, 1,12, 0, 5, 0.00,60.00,Sunday
9,-8.48978480259312
2,1, 1,12, 0, 6, 0.00,60.00,Sunday
7,-8.3
8,-8.6320544214861
4348,22.0
11,42775460.913842715
95,5712267.196849375
779,25978999.127304506
815,292220.39868906356
852,4315579.388951098
889,179048.03206074148
926,76705.48111452046
963,0.0
1000,0.0
3083,129893931.2509588
3131,5429009.773218915
6785,106913983.39202356
6810,0.0
6935,0.0
2,1, 1,12, 0, 6, 0.00,60.00,Sunday
9,-8.6320544214861
2,1, 1,12, 0, 7, 0.00,60.00,Sunday
7,-8.5
8,-8.82783271692919
4348,22.000000000000004
11,42789069.92232096
95,6397739.2604713
779,30028357.648489095
815,584726.447816728
852,4484165.9840628095
889,358096.06412148295
926,204547.94963872098
963,0.0
1000,0.0
3083,152530405.9197206
3131,11071886.833631942
6785,101847546.47296453
6810,0.0
6935,0.0
2,1, 1,12, 0, 7, 0.00,60.00,Sunday
9,-8.82783271692919
2,1, 1,12, 0, 8, 0.00,60.00,Sunday
7,-8.8
8,-9.12154745585115
4348,22.000000000000004
11,44843086.4354366
95,5712267.196849375
779,32706291.21586303
815,877232.4969443938
852,4720424.663127804
889,776087.7678707795
926,409095.89927744196
963,0.0
1000,0.0
3083,170529940.19984803
3131,18816651.74731952
6785,103491815.36465593
6810,0.0
6935,0.0
2,1, 1,12, 0, 8, 0.00,60.00,Sunday
9,-9.12154745585115
2,1, 1,12, 0, 9, 0.00,60.00,Sunday
7,-9.5
8,-9.84154915451958
4348,21.999896505859944
11,39031040.619196385
95,2513397.5666137254
779,30183519.871527705
815,1657343.844764368
852,4821339.174286224
889,1164211.5126590051
926,623845.4196367817
963,0.0
1000,0.0
3083,174158833.80424407
3131,23540665.363830738
6785,100929797.90425043
6810,0.0
6935,0.0
2,1, 1,12, 0, 9, 0.00,60.00,Sunday
9,-9.84154915451958
2,1, 1,12, 0,10, 0.00,60.00,Sunday
7,-10.3
8,-10.851947589119767
4348,21.999785002684504
11,35805890.5115903
95,1713680.159054812
779,27646938.289928388
815,1852157.4438904074
852,4889011.258239515
889,1373287.2253864906
926,879530.356685183
963,0.0
1000,0.0
3083,179173589.47221512
3131,28889710.767046157
6785,103910557.66236159
6810,0.0
6935,0.0
2,1, 1,12, 0,10, 0.00,60.00,Sunday
9,-10.851947589119767
2,1, 1,12, 0,11, 0.00,60.00,Sunday
7,-10.7
8,-11.683582416890017
4348,21.99999255143322
11,35763204.38562278
95,1713680.159054812
779,27771352.927894708
815,1608497.6197635545
852,4720424.663127804
889,1343419.2664254215
926,1007372.8252093834
963,0.0
1000,0.0
3083,170731253.85747373
3131,30430425.224975333
6785,99701008.91318731
6810,0.0
6935,0.0
2,1, 1,12, 0,11, 0.00,60.00,Sunday
9,-11.683582416890017
2,1, 1,12, 0,12, 0.00,60.00,Sunday
7,-10.8
8,-11.743740311828423
4348,21.999998857799593
11,35387556.60745008
95,1713680.159054812
779,27425137.87962011
815,1364837.795636699
852,4720424.663127804
889,1194079.4716200747
926,1048308.2418984461
963,0.0
1000,0.0
3083,166324913.21965486
3131,32642950.0846883
6785,98977436.20750777
6810,0.0
6935,0.0
2,1, 1,12, 0,12, 0.00,60.00,Sunday
9,-11.743740311828423
2,1, 1,12, 0,13, 0.00,60.00,Sunday
7,-10.6
8,-11.523093849872815
4348,21.99999992062742
11,34848794.233360365
95,1713680.159054812
779,26931862.371363785
815,1169738.5460720598
852,4955496.112649762
889,1074607.6357757982
926,956235.8377997031
963,0.0
1000,0.0
3083,160057556.89287797
3131,32116125.78860367
6785,97836668.53462271
6810,0.0
6935,0.0
2,1, 1,12, 0,13, 0.00,60.00,Sunday
9,-11.523093849872815
2,1, 1,12, 0,14, 0.00,60.00,Sunday
7,-10.3
8,-11.438126231914245
4348,21.999999997309217
11,35514024.59842527
95,1713680.159054812
779,27521152.320463695
815,1315991.5706358887
852,4955496.112649762
889,955295.5216371961
926,869328.7859645649
963,0.0
1000,0.0
3083,155145380.77380687
3131,28332548.93900536
6785,99836206.25529566
6810,0.0
6935,0.0
2,1, 1,12, 0,14, 0.00,60.00,Sunday
9,-11.438126231914245
2,1, 1,12, 0,15, 0.00,60.00,Sunday
7,-9.8
8,-10.839810800675263
4348,21.999999999896808
11,35997406.89702916
95,1713680.159054812
779,28098420.546367235
815,1072331.7465090365
852,4889011.258239515
889,835823.6857929175
926,782421.7341294265
963,0.0
1000,0.0
3083,148091078.26156858
3131,26241082.17973883
6785,97410823.42720409
6810,0.0
6935,0.0
2,1, 1,12, 0,15, 0.00,60.00,Sunday
9,-10.839810800675263
2,1, 1,12, 0,16, 0.00,60.00,Sunday
7,-9.3
8,-10.26873986632781
4348,21.999999999992877
11,38318761.12201118
95,2970378.9423616747
779,29155972.865033984
815,1023485.5215082268
852,4955496.112649762
889,776087.7678707795
926,741486.3174403644
963,0.0
1000,0.0
3083,148770076.78485623
3131,27984173.243114583
6785,97578816.53674385
6810,0.0
6935,0.0
2,1, 1,12, 0,16, 0.00,60.00,Sunday
9,-10.26873986632781
2,1, 1,12, 0,17, 0.00,60.00,Sunday
7,-9.0
8,-9.631936030197465
4348,21.99999999999977
11,45994937.899786934
95,6397739.2604713
779,33439684.12781704
815,1072331.7465090365
852,5226184.44846293
889,805955.7268318479
926,715917.8237355244
963,0.0
1000,0.0
3083,158158594.63010746
3131,34690151.07145464
6785,96681193.91318245
6810,0.0
6935,0.0
2,1, 1,12, 0,17, 0.00,60.00,Sunday
9,-9.631936030197465
2,1, 1,12, 0,18, 0.00,60.00,Sunday
7,-9.0
8,-9.5608035705968
4348,21.99999999999999
11,54308443.68519982
95,8911136.827085022
779,39745329.539308414
815,1413398.3701989125
852,5731944.233798051
889,776087.7678707795
926,700550.900751302
963,0.0
1000,0.0
3083,162245492.009435
3131,46145019.54326164
6785,83589678.9428027
6810,0.0
6935,0.0
2,1, 1,12, 0,18, 0.00,60.00,Sunday
9,-9.5608035705968
2,1, 1,12, 0,19, 0.00,60.00,Sunday
7,-9.1
8,-10.008556105180014
4348,22.000000000000004
11,65410897.28482681
95,11995761.113383692
779,43617977.676604085
815,2486015.7671465483
852,5900530.828909755
889,776087.7678707795
926,664780.8363258442
963,0.0
1000,0.0
3083,151339657.55574372
3131,39168572.04791574
6785,73773829.76726721
6810,0.0
6935,0.0
2,1, 1,12, 0,19, 0.00,60.00,Sunday
9,-10.008556105180014
2,1, 1,12, 0,20, 0.00,60.00,Sunday
7,-9.4
8,-10.742193848268183
4348,22.0
11,68448793.52358292
95,13294003.658122186
779,45209551.04674158
815,3168434.664964901
852,5731944.233798051
889,776087.7678707795
926,654579.2656052251
963,0.0
1000,0.0
3083,145304271.5203431
3131,28029144.924741067
6785,77675021.65261613
6810,0.0
6935,0.0
2,1, 1,12, 0,20, 0.00,60.00,Sunday
9,-10.742193848268183
2,1, 1,12, 0,21, 0.00,60.00,Sunday
7,-10.1
8,-11.31333528157844
4348,22.0
11,68908735.15883207
95,13294003.658122186
779,45675432.05836988
815,2583422.566709569
852,5563357.63868634
889,776087.7678707795
926,674982.407046462
963,0.0
1000,0.0
3083,137624181.87372854
3131,23724929.214083172
6785,77489583.78195208
6810,0.0
6935,0.0
2,1, 1,12, 0,21, 0.00,60.00,Sunday
9,-11.31333528157844
2,1, 1,12, 0,22, 0.00,60.00,Sunday
7,-10.9
8,-12.205826279051855
4348,22.0
11,64312077.23850629
95,10053590.266454902
779,44044333.783121735
815,1901003.6688912208
852,5461255.897984883
889,746219.8089097101
926,700550.900751302
963,0.0
1000,0.0
3083,138676004.58643278
3131,22107072.31167421
6785,84663518.5627439
6810,0.0
6935,0.0
2,1, 1,12, 0,22, 0.00,60.00,Sunday
9,-12.205826279051855
2,1, 1,12, 0,23, 0.00,60.00,Sunday
7,-12.1
8,-13.098383856871454
4348,21.999999999999996
11,54084504.100286655
95,5598021.852912389
779,38054912.15261661
815,1267145.345635079
852,5226184.44846293
889,507435.85892682965
926,562506.8615064835
963,0.0
1000,0.0
3083,131278513.56440455
3131,17096049.650594376
6785,90189293.14753567
6810,0.0
6935,0.0
2,1, 1,12, 0,23, 0.00,60.00,Sunday
9,-13.098383856871454
2,1, 1,12, 0,24, 0.00,60.00,Sunday
7,-13.5
8,-14.428912969801702
4348,22.000000000000004
11,45932783.38429044
95,2284906.8787397505
779,32838385.066147096
815,877232.4969443938
852,4889011.258239515
889,268651.90894395043
926,306821.9244580813
963,0.0
1000,0.0
3083,126027544.07148781
3131,10578766.75697427
6785,99913206.78075232
6810,0.0
6935,0.0
2,1, 1,12, 0,24, 0.00,60.00,Sunday
9,-14.428912969801702
End of Data
 Number of Records Written=         432
