Program Version,EnergyPlus, Version 9.6.0-f420c06a69, YMD=2024.05.14 12:32
1,5,Environment Title[],Latitude[deg],Longitude[deg],Time Zone[],Elevation[m]
2,8,Day of Simulation[],Month[],Day of Month[],DST Indicator[1=yes 0=no],Hour[],StartMinute[],EndMinute[],DayType
3,5,Cumulative Day of Simulation[],Month[],Day of Month[],DST Indicator[1=yes 0=no],DayType  ! When Daily Meters Requested
4,2,Cumulative Days of Simulation[],Month[]  ! When Monthly Meters Requested
5,1,Cumulative Days of Simulation[] ! When Run Period Meters Requested
6,1,Calendar Year of Simulation[] ! When Annual Meters Requested
11,1,Electricity:Facility [J] !TimeStep
779,1,InteriorEquipment:Electricity [J] !TimeStep
95,1,General:InteriorLights:Electricity [J] !TimeStep
815,1,dishwasher:InteriorEquipment:Electricity [J] !TimeStep
852,1,refrigerator:InteriorEquipment:Electricity [J] !TimeStep
889,1,clotheswasher:InteriorEquipment:Electricity [J] !TimeStep
1000,1,television:InteriorEquipment:Electricity [J] !TimeStep
3223,1,Heating:Electricity [J] !TimeStep
3133,1,Cooling:Electricity [J] !TimeStep
End of Data Dictionary
1,ANNUAL,  46.78, -71.29,  -5.00,  91.40
2,1, 1,12, 0, 1, 0.00,60.00,Sunday
11,127146488.71818933
95,913962.7514959001
779,25836502.599204574
815,438473.423252895
852,4720424.663127804
889,149180.07309967247
1000,0.0
3133,0.0
3223,84804263.74817829
2,1, 1,12, 0, 2, 0.00,60.00,Sunday
11,127628700.21950056
95,913962.7514959001
779,23433657.347876005
815,194813.59912604262
852,4618322.922426349
889,119312.11413860306
1000,0.0
3133,0.0
3223,86904591.50367877
2,1, 1,12, 0, 3, 0.00,60.00,Sunday
11,129184617.05546635
95,913962.7514959001
779,22429740.698760387
815,145967.37412523094
852,4517408.4112679325
889,59576.19621646439
1000,0.0
3133,0.0
3223,89077761.1776574
2,1, 1,12, 0, 4, 0.00,60.00,Sunday
11,136087062.30931118
95,913962.7514959001
779,21729431.235979646
815,97406.7995630209
852,4383251.47290439
889,59576.19621646439
1000,0.0
3133,0.0
3223,96287623.2822537
2,1, 1,12, 0, 5, 0.00,60.00,Sunday
11,142092489.37890217
95,2741888.254487699
779,21691689.615990315
815,97406.7995630209
852,4315579.388951098
889,119312.11413860306
1000,0.0
3133,0.0
3223,100359941.20776074
2,1, 1,12, 0, 6, 0.00,60.00,Sunday
11,149284925.37823722
95,5712267.196849375
779,24393151.97135015
815,292220.39868906356
852,4315579.388951098
889,179048.03206074148
1000,0.0
3133,0.0
3223,101877831.14512399
2,1, 1,12, 0, 7, 0.00,60.00,Sunday
11,229641540.5118087
95,6397739.2604713
779,30469896.092068538
815,584726.447816728
852,4484165.9840628095
889,358096.06412148295
1000,0.0
3133,0.0
3223,149230560.02620366
2,1, 1,12, 0, 8, 0.00,60.00,Sunday
11,190581015.63099024
95,5712267.196849375
779,36530096.29223999
815,877232.4969443938
852,4720424.663127804
889,776087.7678707795
1000,0.0
3133,0.0
3223,122519642.92994516
2,1, 1,12, 0, 9, 0.00,60.00,Sunday
11,155337519.38884705
95,2513397.5666137254
779,37091361.89418331
815,1657343.844764368
852,4821339.174286224
889,1164211.5126590051
1000,0.0
3133,0.0
3223,102899308.26715319
2,1, 1,12, 0,10, 0.00,60.00,Sunday
11,242600002.71209967
95,1713680.159054812
779,37806136.01356445
815,1852157.4438904074
852,4889011.258239515
889,1373287.2253864906
1000,0.0
3133,0.0
3223,159896094.11751342
2,1, 1,12, 0,11, 0.00,60.00,Sunday
11,227455279.76189983
95,1713680.159054812
779,38631885.27524645
815,1608497.6197635545
852,4720424.663127804
889,1343419.2664254215
1000,0.0
3133,0.0
3223,146768471.06024963
2,1, 1,12, 0,12, 0.00,60.00,Sunday
11,158180025.9035814
95,1713680.159054812
779,39324937.046586715
815,1364837.795636699
852,4720424.663127804
889,1194079.4716200747
1000,0.0
3133,0.0
3223,104231777.92740971
2,1, 1,12, 0,13, 0.00,60.00,Sunday
11,156975275.112049
95,1713680.159054812
779,38594952.87661496
815,1169738.5460720598
852,4955496.112649762
889,1074607.6357757982
1000,0.0
3133,0.0
3223,103779199.34185264
2,1, 1,12, 0,14, 0.00,60.00,Sunday
11,235471148.64537534
95,1713680.159054812
779,37267631.61147033
815,1315991.5706358887
852,4955496.112649762
889,955295.5216371961
1000,0.0
3133,0.0
3223,153169366.46658412
2,1, 1,12, 0,15, 0.00,60.00,Sunday
11,185749687.72415438
95,1713680.159054812
779,36617461.96882949
815,1072331.7465090365
852,4889011.258239515
889,835823.6857929175
1000,0.0
3133,0.0
3223,120371798.61654016
2,1, 1,12, 0,16, 0.00,60.00,Sunday
11,153257773.42814445
95,2970378.9423616747
779,38225869.85629992
815,1023485.5215082268
852,4955496.112649762
889,776087.7678707795
1000,0.0
3133,0.0
3223,99303685.51935096
2,1, 1,12, 0,17, 0.00,60.00,Sunday
11,165092262.84619233
95,6397739.2604713
779,44795449.52530815
815,1072331.7465090365
852,5226184.44846293
889,805955.7268318479
1000,0.0
3133,0.0
3223,101130542.39290667
2,1, 1,12, 0,18, 0.00,60.00,Sunday
11,248503638.58474034
95,8911136.827085022
779,55269617.26711448
815,1413398.3701989125
852,5731944.233798051
889,776087.7678707795
1000,0.0
3133,0.0
3223,140880151.80318502
2,1, 1,12, 0,19, 0.00,60.00,Sunday
11,208406165.09784147
95,11995761.113383692
779,55399498.511634886
815,2486015.7671465483
852,5900530.828909755
889,776087.7678707795
1000,0.0
3133,0.0
3223,106933003.62018877
2,1, 1,12, 0,20, 0.00,60.00,Sunday
11,169138682.2033754
95,13294003.658122186
779,51663709.24382042
815,3168434.664964901
852,5731944.233798051
889,776087.7678707795
1000,0.0
3133,0.0
3223,87458279.56531064
2,1, 1,12, 0,21, 0.00,60.00,Sunday
11,169741841.55716333
95,13294003.658122186
779,49934365.634654075
815,2583422.566709569
852,5563357.63868634
889,776087.7678707795
1000,0.0
3133,0.0
3223,89707766.71878387
2,1, 1,12, 0,22, 0.00,60.00,Sunday
11,249622774.58428434
95,10053590.266454902
779,47741914.334141746
815,1901003.6688912208
852,5461255.897984883
889,746219.8089097101
1000,0.0
3133,0.0
3223,144147768.29984954
2,1, 1,12, 0,23, 0.00,60.00,Sunday
11,206169574.9301007
95,5598021.852912389
779,40294035.26445979
815,1267145.345635079
852,5226184.44846293
889,507435.85892682965
1000,0.0
3133,0.0
3223,127816992.79304285
2,1, 1,12, 0,24, 0.00,60.00,Sunday
11,170563373.2686726
95,2284906.8787397505
779,32708042.448952936
815,877232.4969443938
852,4889011.258239515
889,268651.90894395043
1000,0.0
3133,0.0
3223,117985351.72016001
End of Data
 Number of Records Written=         216
