Program Version,EnergyPlus, Version 9.6.0-f420c06a69, YMD=2024.05.14 12:32
1,5,Environment Title[],Latitude[deg],Longitude[deg],Time Zone[],Elevation[m]
2,8,Day of Simulation[],Month[],Day of Month[],DST Indicator[1=yes 0=no],Hour[],StartMinute[],EndMinute[],DayType
3,5,Cumulative Day of Simulation[],Month[],Day of Month[],DST Indicator[1=yes 0=no],DayType  ! When Daily Report Variables Requested
4,2,Cumulative Days of Simulation[],Month[]  ! When Monthly Report Variables Requested
5,1,Cumulative Days of Simulation[] ! When Run Period Report Variables Requested
6,1,Calendar Year of Simulation[] ! When Annual Report Variables Requested
7,1,Environment,Site Outdoor Air Drybulb Temperature [C] !TimeStep
8,1,Environment,Site Outdoor Air Dewpoint Temperature [C] !TimeStep
9,1,Environment,Site Outdoor Air Wetbulb Temperature [C] !Hourly
3412,1,LIVING_UNIT1_FRONTROW_BOTTOMFLOOR,Zone Mean Air Temperature [C] !TimeStep
11,1,Electricity:Facility [J] !TimeStep
6202,1,NaturalGas:Facility [J] !TimeStep
779,1,InteriorEquipment:Electricity [J] !TimeStep
95,1,General:InteriorLights:Electricity [J] !TimeStep
815,1,dishwasher:InteriorEquipment:Electricity [J] !TimeStep
852,1,refrigerator:InteriorEquipment:Electricity [J] !TimeStep
889,1,clotheswasher:InteriorEquipment:Electricity [J] !TimeStep
1000,1,television:InteriorEquipment:Electricity [J] !TimeStep
6251,1,Heating:Electricity [J] !TimeStep
6226,1,Heating:NaturalGas [J] !TimeStep
3133,1,Cooling:Electricity [J] !TimeStep
End of Data Dictionary
1,ANNUAL,  46.78, -71.29,  -5.00,  91.40
2,1, 1,12, 0, 1, 0.00,60.00,Sunday
7,-2.0
8,-2.000002335045541
3412,21.999998045412937
11,36489912.867246464
95,913962.7514959001
779,25836502.599204574
815,438473.423252895
852,4720424.663127804
889,149180.07309967247
1000,0.0
3133,0.0
6202,58653117.17881924
6226,58653117.17881924
6251,0.0
2,1, 1,12, 0, 1, 0.00,60.00,Sunday
9,-2.000002335045541
2,1, 1,12, 0, 2, 0.00,60.00,Sunday
7,-4.2
8,-4.2
3412,22.000035964167303
11,34479976.748700775
95,913962.7514959001
779,23433657.347876005
815,194813.59912604262
852,4618322.922426349
889,119312.11413860306
1000,0.0
3133,0.0
6202,92389161.02597186
6226,92389161.02597186
6251,0.0
2,1, 1,12, 0, 2, 0.00,60.00,Sunday
9,-4.2
2,1, 1,12, 0, 3, 0.00,60.00,Sunday
7,-5.9
8,-6.198630539634405
3412,21.999307853457182
11,33642093.35205127
95,913962.7514959001
779,22429740.698760387
815,145967.37412523094
852,4517408.4112679325
889,59576.19621646439
1000,0.0
3133,0.0
6202,96844881.93403096
6226,96844881.93403096
6251,0.0
2,1, 1,12, 0, 3, 0.00,60.00,Sunday
9,-6.198630539634405
2,1, 1,12, 0, 4, 0.00,60.00,Sunday
7,-7.2
8,-7.555630191230219
3412,22.00011122959242
11,33016542.1718543
95,913962.7514959001
779,21729431.235979646
815,97406.7995630209
852,4383251.47290439
889,59576.19621646439
1000,0.0
3133,0.0
6202,106227970.86072108
6226,106227970.86072108
6251,0.0
2,1, 1,12, 0, 4, 0.00,60.00,Sunday
9,-7.555630191230219
2,1, 1,12, 0, 5, 0.00,60.00,Sunday
7,-8.0
8,-8.48978480259312
3412,22.000151294206386
11,34860611.44823279
95,2741888.254487699
779,21691689.615990315
815,97406.7995630209
852,4315579.388951098
889,119312.11413860306
1000,0.0
3133,0.0
6202,107994025.81183928
6226,107994025.81183928
6251,0.0
2,1, 1,12, 0, 5, 0.00,60.00,Sunday
9,-8.48978480259312
2,1, 1,12, 0, 6, 0.00,60.00,Sunday
7,-8.3
8,-8.6320544214861
3412,22.00018461135202
11,40469329.989402354
95,5712267.196849375
779,24393151.97135015
815,292220.39868906356
852,4315579.388951098
889,179048.03206074148
1000,0.0
3133,0.0
6202,105256245.8484432
6226,105256245.8484432
6251,0.0
2,1, 1,12, 0, 6, 0.00,60.00,Sunday
9,-8.6320544214861
2,1, 1,12, 0, 7, 0.00,60.00,Sunday
7,-8.5
8,-8.82783271692919
3412,22.00018015824025
11,74756283.81047629
95,6397739.2604713
779,30469896.092068538
815,584726.447816728
852,4484165.9840628095
889,358096.06412148295
1000,0.0
3133,0.0
6202,166952961.23714218
6226,166952961.23714218
6251,0.0
2,1, 1,12, 0, 7, 0.00,60.00,Sunday
9,-8.82783271692919
2,1, 1,12, 0, 8, 0.00,60.00,Sunday
7,-8.8
8,-9.12154745585115
3412,22.00018691738748
11,61489961.87360084
95,5712267.196849375
779,36530096.29223999
815,877232.4969443938
852,4720424.663127804
889,776087.7678707795
1000,0.0
3133,0.0
6202,126978794.70441547
6226,126978794.70441547
6251,0.0
2,1, 1,12, 0, 8, 0.00,60.00,Sunday
9,-9.12154745585115
2,1, 1,12, 0, 9, 0.00,60.00,Sunday
7,-9.5
8,-9.84154915451958
3412,22.00007767150236
11,45279334.250541985
95,2513397.5666137254
779,37091361.89418331
815,1657343.844764368
852,4821339.174286224
889,1164211.5126590051
1000,0.0
3133,0.0
6202,103194807.63071859
6226,103194807.63071859
6251,0.0
2,1, 1,12, 0, 9, 0.00,60.00,Sunday
9,-9.84154915451958
2,1, 1,12, 0,10, 0.00,60.00,Sunday
7,-10.3
8,-10.851947589119767
3412,22.000077034915872
11,77067458.73755574
95,1713680.159054812
779,37806136.01356445
815,1852157.4438904074
852,4889011.258239515
889,1373287.2253864906
1000,0.0
3133,0.0
6202,174468850.8071226
6226,174468850.8071226
6251,0.0
2,1, 1,12, 0,10, 0.00,60.00,Sunday
9,-10.851947589119767
2,1, 1,12, 0,11, 0.00,60.00,Sunday
7,-10.7
8,-11.683582416890017
3412,22.000139002373423
11,74658059.01891476
95,1713680.159054812
779,38631885.27524645
815,1608497.6197635545
852,4720424.663127804
889,1343419.2664254215
1000,0.0
3133,0.0
6202,156876213.25292498
6226,156876213.25292498
6251,0.0
2,1, 1,12, 0,11, 0.00,60.00,Sunday
9,-11.683582416890017
2,1, 1,12, 0,12, 0.00,60.00,Sunday
7,-10.8
8,-11.743740311828423
3412,22.000225319687498
11,46622416.32477332
95,1713680.159054812
779,39324937.046586715
815,1364837.795636699
852,4720424.663127804
889,1194079.4716200747
1000,0.0
3133,0.0
6202,98567119.33590098
6226,98567119.33590098
6251,0.0
2,1, 1,12, 0,12, 0.00,60.00,Sunday
9,-11.743740311828423
2,1, 1,12, 0,13, 0.00,60.00,Sunday
7,-10.6
8,-11.523093849872815
3412,22.000287655386895
11,45870249.26987888
95,1713680.159054812
779,38594952.87661496
815,1169738.5460720598
852,4955496.112649762
889,1074607.6357757982
1000,0.0
3133,0.0
6202,99820854.99975707
6226,99820854.99975707
6251,0.0
2,1, 1,12, 0,13, 0.00,60.00,Sunday
9,-11.523093849872815
2,1, 1,12, 0,14, 0.00,60.00,Sunday
7,-10.3
8,-11.438126231914245
3412,22.00033973028324
11,76337994.96740258
95,1713680.159054812
779,37267631.61147033
815,1315991.5706358887
852,4955496.112649762
889,955295.5216371961
1000,0.0
3133,0.0
6202,166077446.90560374
6226,166077446.90560374
6251,0.0
2,1, 1,12, 0,14, 0.00,60.00,Sunday
9,-11.438126231914245
2,1, 1,12, 0,15, 0.00,60.00,Sunday
7,-9.8
8,-10.839810800675263
3412,22.000388627924576
11,58983170.10560596
95,1713680.159054812
779,36617461.96882949
815,1072331.7465090365
852,4889011.258239515
889,835823.6857929175
1000,0.0
3133,0.0
6202,125151723.62175515
6226,125151723.62175515
6251,0.0
2,1, 1,12, 0,15, 0.00,60.00,Sunday
9,-10.839810800675263
2,1, 1,12, 0,16, 0.00,60.00,Sunday
7,-9.3
8,-10.26873986632781
3412,22.00036685248827
11,46807818.42780701
95,2970378.9423616747
779,38225869.85629992
815,1023485.5215082268
852,4955496.112649762
889,776087.7678707795
1000,0.0
3133,0.0
6202,97737862.02935483
6226,97737862.02935483
6251,0.0
2,1, 1,12, 0,16, 0.00,60.00,Sunday
9,-10.26873986632781
2,1, 1,12, 0,17, 0.00,60.00,Sunday
7,-9.0
8,-9.631936030197465
3412,22.00032902507033
11,56858306.10078206
95,6397739.2604713
779,44795449.52530815
815,1072331.7465090365
852,5226184.44846293
889,805955.7268318479
1000,0.0
3133,0.0
6202,100203338.14503247
6226,100203338.14503247
6251,0.0
2,1, 1,12, 0,17, 0.00,60.00,Sunday
9,-9.631936030197465
2,1, 1,12, 0,18, 0.00,60.00,Sunday
7,-9.0
8,-9.5608035705968
3412,22.000282468849257
11,101469009.07019949
95,8911136.827085022
779,55269617.26711448
815,1413398.3701989125
852,5731944.233798051
889,776087.7678707795
1000,0.0
3133,0.0
6202,153445661.2909017
6226,153445661.2909017
6251,0.0
2,1, 1,12, 0,18, 0.00,60.00,Sunday
9,-9.5608035705968
2,1, 1,12, 0,19, 0.00,60.00,Sunday
7,-9.1
8,-10.008556105180014
3412,22.000248549679725
11,94846555.9426878
95,11995761.113383692
779,55399498.511634886
815,2486015.7671465483
852,5900530.828909755
889,776087.7678707795
1000,0.0
3133,0.0
6202,112907476.35678442
6226,112907476.35678442
6251,0.0
2,1, 1,12, 0,19, 0.00,60.00,Sunday
9,-10.008556105180014
2,1, 1,12, 0,20, 0.00,60.00,Sunday
7,-9.4
8,-10.742193848268183
3412,22.000187940588958
11,74757761.03932321
95,13294003.658122186
779,51663709.24382042
815,3168434.664964901
852,5731944.233798051
889,776087.7678707795
1000,0.0
3133,0.0
6202,84164913.26967007
6226,84164913.26967007
6251,0.0
2,1, 1,12, 0,20, 0.00,60.00,Sunday
9,-10.742193848268183
2,1, 1,12, 0,21, 0.00,60.00,Sunday
7,-10.1
8,-11.31333528157844
3412,22.000161076549062
11,72973673.10982572
95,13294003.658122186
779,49934365.634654075
815,2583422.566709569
852,5563357.63868634
889,776087.7678707795
1000,0.0
3133,0.0
6202,85250558.99674013
6226,85250558.99674013
6251,0.0
2,1, 1,12, 0,21, 0.00,60.00,Sunday
9,-11.31333528157844
2,1, 1,12, 0,22, 0.00,60.00,Sunday
7,-10.9
8,-12.205826279051855
3412,22.000163403581247
11,99324031.54416694
95,10053590.266454902
779,47741914.334141746
815,1901003.6688912208
852,5461255.897984883
889,746219.8089097101
1000,0.0
3133,0.0
6202,159871270.7169801
6226,159871270.7169801
6251,0.0
2,1, 1,12, 0,22, 0.00,60.00,Sunday
9,-12.205826279051855
2,1, 1,12, 0,23, 0.00,60.00,Sunday
7,-12.1
8,-13.098383856871454
3412,22.00013124707538
11,71551472.56261487
95,5598021.852912389
779,40294035.26445979
815,1267145.345635079
852,5226184.44846293
889,507435.85892682965
1000,0.0
3133,0.0
6202,124411032.6645967
6226,124411032.6645967
6251,0.0
2,1, 1,12, 0,23, 0.00,60.00,Sunday
9,-13.098383856871454
2,1, 1,12, 0,24, 0.00,60.00,Sunday
7,-13.5
8,-14.428912969801702
3412,22.000144896680165
11,45106595.71359803
95,2284906.8787397505
779,32708042.448952936
815,877232.4969443938
852,4889011.258239515
889,268651.90894395043
1000,0.0
3133,0.0
6202,102889048.29767299
6226,102889048.29767299
6251,0.0
2,1, 1,12, 0,24, 0.00,60.00,Sunday
9,-14.428912969801702
End of Data
 Number of Records Written=         360
