Program Version,EnergyPlus, Version 9.6.0-f420c06a69, YMD=2024.05.14 12:32
1,5,Environment Title[],Latitude[deg],Longitude[deg],Time Zone[],Elevation[m]
2,8,Day of Simulation[],Month[],Day of Month[],DST Indicator[1=yes 0=no],Hour[],StartMinute[],EndMinute[],DayType
3,5,Cumulative Day of Simulation[],Month[],Day of Month[],DST Indicator[1=yes 0=no],DayType  ! When Daily Report Variables Requested
4,2,Cumulative Days of Simulation[],Month[]  ! When Monthly Report Variables Requested
5,1,Cumulative Days of Simulation[] ! When Run Period Report Variables Requested
6,1,Calendar Year of Simulation[] ! When Annual Report Variables Requested
7,1,Environment,Site Outdoor Air Drybulb Temperature [C] !TimeStep
8,1,Environment,Site Outdoor Air Dewpoint Temperature [C] !TimeStep
9,1,Environment,Site Outdoor Air Wetbulb Temperature [C] !Hourly
3538,1,LIVING_UNIT1_FRONTROW_BOTTOMFLOOR,Zone Mean Air Temperature [C] !TimeStep
11,1,Electricity:Facility [J] !TimeStep
779,1,InteriorEquipment:Electricity [J] !TimeStep
95,1,General:InteriorLights:Electricity [J] !TimeStep
815,1,dishwasher:InteriorEquipment:Electricity [J] !TimeStep
852,1,refrigerator:InteriorEquipment:Electricity [J] !TimeStep
889,1,clotheswasher:InteriorEquipment:Electricity [J] !TimeStep
1000,1,television:InteriorEquipment:Electricity [J] !TimeStep
3223,1,Heating:Electricity [J] !TimeStep
3133,1,Cooling:Electricity [J] !TimeStep
End of Data Dictionary
1,ANNUAL,  46.78, -71.29,  -5.00,  91.40
2,1, 1,12, 0, 1, 0.00,60.00,Sunday
7,-2.0
8,-2.000002335045541
3538,22.00001392299932
11,81551485.91251889
95,913962.7514959001
779,25836502.599204574
815,438473.423252895
852,4720424.663127804
889,149180.07309967247
1000,0.0
3133,0.0
3223,41699708.15979846
2,1, 1,12, 0, 1, 0.00,60.00,Sunday
9,-2.000002335045541
2,1, 1,12, 0, 2, 0.00,60.00,Sunday
7,-4.2
8,-4.2
3538,22.00003561426346
11,83979703.10793628
95,913962.7514959001
779,23433657.347876005
815,194813.59912604262
852,4618322.922426349
889,119312.11413860306
1000,0.0
3133,0.0
3223,45300733.12583781
2,1, 1,12, 0, 2, 0.00,60.00,Sunday
9,-4.2
2,1, 1,12, 0, 3, 0.00,60.00,Sunday
7,-5.9
8,-6.198630539634405
3538,22.000054664093526
11,83856013.9993599
95,913962.7514959001
779,22429740.698760387
815,145967.37412523094
852,4517408.4112679325
889,59576.19621646439
1000,0.0
3133,0.0
3223,45550947.711056344
2,1, 1,12, 0, 3, 0.00,60.00,Sunday
9,-6.198630539634405
2,1, 1,12, 0, 4, 0.00,60.00,Sunday
7,-7.2
8,-7.555630191230219
3538,22.00002388609824
11,87371897.36370434
95,913962.7514959001
779,21729431.235979646
815,97406.7995630209
852,4383251.47290439
889,59576.19621646439
1000,0.0
3133,0.0
3223,49185843.102603346
2,1, 1,12, 0, 4, 0.00,60.00,Sunday
9,-7.555630191230219
2,1, 1,12, 0, 5, 0.00,60.00,Sunday
7,-8.0
8,-8.48978480259312
3538,22.00112106740037
11,90980345.02871007
95,2741888.254487699
779,21691689.615990315
815,97406.7995630209
852,4315579.388951098
889,119312.11413860306
1000,0.0
3133,0.0
3223,50768953.04602067
2,1, 1,12, 0, 5, 0.00,60.00,Sunday
9,-8.48978480259312
2,1, 1,12, 0, 6, 0.00,60.00,Sunday
7,-8.3
8,-8.6320544214861
3538,22.0014056458211
11,96884111.58805166
95,5712267.196849375
779,24393151.97135015
815,292220.39868906356
852,4315579.388951098
889,179048.03206074148
1000,0.0
3133,0.0
3223,50998809.470639125
2,1, 1,12, 0, 6, 0.00,60.00,Sunday
9,-8.6320544214861
2,1, 1,12, 0, 7, 0.00,60.00,Sunday
7,-8.5
8,-8.82783271692919
3538,22.000518786727085
11,173719347.14883864
95,6397739.2604713
779,30469896.092068538
815,584726.447816728
852,4484165.9840628095
889,358096.06412148295
1000,0.0
3133,0.0
3223,94411348.38332704
2,1, 1,12, 0, 7, 0.00,60.00,Sunday
9,-8.82783271692919
2,1, 1,12, 0, 8, 0.00,60.00,Sunday
7,-8.8
8,-9.12154745585115
3538,22.00059494381244
11,135711837.62365976
95,5712267.196849375
779,36530096.29223999
815,877232.4969443938
852,4720424.663127804
889,776087.7678707795
1000,0.0
3133,0.0
3223,68834927.34856524
2,1, 1,12, 0, 8, 0.00,60.00,Sunday
9,-9.12154745585115
2,1, 1,12, 0, 9, 0.00,60.00,Sunday
7,-9.5
8,-9.84154915451958
3538,22.001029927107275
11,101067647.21407415
95,2513397.5666137254
779,37091361.89418331
815,1657343.844764368
852,4821339.174286224
889,1164211.5126590051
1000,0.0
3133,0.0
3223,50170489.96899818
2,1, 1,12, 0, 9, 0.00,60.00,Sunday
9,-9.84154915451958
2,1, 1,12, 0,10, 0.00,60.00,Sunday
7,-10.3
8,-10.851947589119767
3538,22.00010395850356
11,183403212.7336399
95,1713680.159054812
779,37806136.01356445
815,1852157.4438904074
852,4889011.258239515
889,1373287.2253864906
1000,0.0
3133,0.0
3223,101804924.85762365
2,1, 1,12, 0,10, 0.00,60.00,Sunday
9,-10.851947589119767
2,1, 1,12, 0,11, 0.00,60.00,Sunday
7,-10.7
8,-11.683582416890017
3538,22.000018194190865
11,167415207.30696237
95,1713680.159054812
779,38631885.27524645
815,1608497.6197635545
852,4720424.663127804
889,1343419.2664254215
1000,0.0
3133,0.0
3223,87707114.04588096
2,1, 1,12, 0,11, 0.00,60.00,Sunday
9,-11.683582416890017
2,1, 1,12, 0,12, 0.00,60.00,Sunday
7,-10.8
8,-11.743740311828423
3538,22.001083570785536
11,99838559.8310256
95,1713680.159054812
779,39324937.046586715
815,1364837.795636699
852,4720424.663127804
889,1194079.4716200747
1000,0.0
3133,0.0
3223,47426707.454235464
2,1, 1,12, 0,12, 0.00,60.00,Sunday
9,-11.743740311828423
2,1, 1,12, 0,13, 0.00,60.00,Sunday
7,-10.6
8,-11.523093849872815
3538,22.00145203799483
11,98694066.24650164
95,1713680.159054812
779,38594952.87661496
815,1169738.5460720598
852,4955496.112649762
889,1074607.6357757982
1000,0.0
3133,0.0
3223,47047447.16753975
2,1, 1,12, 0,13, 0.00,60.00,Sunday
9,-11.523093849872815
2,1, 1,12, 0,14, 0.00,60.00,Sunday
7,-10.3
8,-11.438126231914245
3538,22.000554128047217
11,174292942.27253306
95,1713680.159054812
779,37267631.61147033
815,1315991.5706358887
852,4955496.112649762
889,955295.5216371961
1000,0.0
3133,0.0
3223,93118149.74854493
2,1, 1,12, 0,14, 0.00,60.00,Sunday
9,-11.438126231914245
2,1, 1,12, 0,15, 0.00,60.00,Sunday
7,-9.8
8,-10.839810800675263
3538,22.000079705692574
11,111272859.03062995
95,1713680.159054812
779,36617461.96882949
815,1072331.7465090365
852,4889011.258239515
889,835823.6857929175
1000,0.0
3133,0.0
3223,54310653.65781301
2,1, 1,12, 0,15, 0.00,60.00,Sunday
9,-10.839810800675263
2,1, 1,12, 0,16, 0.00,60.00,Sunday
7,-9.3
8,-10.26873986632781
3538,22.000045610845252
11,97676836.56174117
95,2970378.9423616747
779,38225869.85629992
815,1023485.5215082268
852,4955496.112649762
889,776087.7678707795
1000,0.0
3133,0.0
3223,45324900.41581655
2,1, 1,12, 0,16, 0.00,60.00,Sunday
9,-10.26873986632781
2,1, 1,12, 0,17, 0.00,60.00,Sunday
7,-9.0
8,-9.631936030197465
3538,22.000039943841603
11,109986557.19186653
95,6397739.2604713
779,44795449.52530815
815,1072331.7465090365
852,5226184.44846293
889,805955.7268318479
1000,0.0
3133,0.0
3223,47606588.15907895
2,1, 1,12, 0,17, 0.00,60.00,Sunday
9,-9.631936030197465
2,1, 1,12, 0,18, 0.00,60.00,Sunday
7,-9.0
8,-9.5608035705968
3538,22.000004966890785
11,191694252.52634913
95,8911136.827085022
779,55269617.26711448
815,1413398.3701989125
852,5731944.233798051
889,776087.7678707795
1000,0.0
3133,0.0
3223,85431833.64627181
2,1, 1,12, 0,18, 0.00,60.00,Sunday
9,-9.5608035705968
2,1, 1,12, 0,19, 0.00,60.00,Sunday
7,-9.1
8,-10.008556105180014
3538,22.000000296848746
11,166285357.1397424
95,11995761.113383692
779,55399498.511634886
815,2486015.7671465483
852,5900530.828909755
889,776087.7678707795
1000,0.0
3133,0.0
3223,60447679.88936265
2,1, 1,12, 0,19, 0.00,60.00,Sunday
9,-10.008556105180014
2,1, 1,12, 0,20, 0.00,60.00,Sunday
7,-9.4
8,-10.742193848268183
3538,22.000043749783323
11,116987486.02397645
95,13294003.658122186
779,51663709.24382042
815,3168434.664964901
852,5731944.233798051
889,776087.7678707795
1000,0.0
3133,0.0
3223,37132940.03850591
2,1, 1,12, 0,20, 0.00,60.00,Sunday
9,-10.742193848268183
2,1, 1,12, 0,21, 0.00,60.00,Sunday
7,-10.1
8,-11.31333528157844
3538,22.00006076933124
11,115869136.28788473
95,13294003.658122186
779,49934365.634654075
815,2583422.566709569
852,5563357.63868634
889,776087.7678707795
1000,0.0
3133,0.0
3223,37649613.48848
2,1, 1,12, 0,21, 0.00,60.00,Sunday
9,-11.31333528157844
2,1, 1,12, 0,22, 0.00,60.00,Sunday
7,-10.9
8,-12.205826279051855
3538,22.00000347270494
11,188993194.22010767
95,10053590.266454902
779,47741914.334141746
815,1901003.6688912208
852,5461255.897984883
889,746219.8089097101
1000,0.0
3133,0.0
3223,84624455.6559373
2,1, 1,12, 0,22, 0.00,60.00,Sunday
9,-12.205826279051855
2,1, 1,12, 0,23, 0.00,60.00,Sunday
7,-12.1
8,-13.098383856871454
3538,22.000000420345984
11,143814432.31183422
95,5598021.852912389
779,40294035.26445979
815,1267145.345635079
852,5226184.44846293
889,507435.85892682965
1000,0.0
3133,0.0
3223,66551963.16192788
2,1, 1,12, 0,23, 0.00,60.00,Sunday
9,-13.098383856871454
2,1, 1,12, 0,24, 0.00,60.00,Sunday
7,-13.5
8,-14.428912969801702
3538,22.000000026035014
11,104925480.72009365
95,2284906.8787397505
779,32708042.448952936
815,877232.4969443938
852,4889011.258239515
889,268651.90894395043
1000,0.0
3133,0.0
3223,53739400.86171073
2,1, 1,12, 0,24, 0.00,60.00,Sunday
9,-14.428912969801702
End of Data
 Number of Records Written=         312
