Program Version,EnergyPlus, Version 9.6.0-f420c06a69, YMD=2024.05.14 12:32
1,5,Environment Title[],Latitude[deg],Longitude[deg],Time Zone[],Elevation[m]
2,8,Day of Simulation[],Month[],Day of Month[],DST Indicator[1=yes 0=no],Hour[],StartMinute[],EndMinute[],DayType
3,5,Cumulative Day of Simulation[],Month[],Day of Month[],DST Indicator[1=yes 0=no],DayType  ! When Daily Meters Requested
4,2,Cumulative Days of Simulation[],Month[]  ! When Monthly Meters Requested
5,1,Cumulative Days of Simulation[] ! When Run Period Meters Requested
6,1,Calendar Year of Simulation[] ! When Annual Meters Requested
11,1,Electricity:Facility [J] !TimeStep
3083,1,NaturalGas:Facility [J] !TimeStep
779,1,InteriorEquipment:Electricity [J] !TimeStep
95,1,General:InteriorLights:Electricity [J] !TimeStep
815,1,dishwasher:InteriorEquipment:Electricity [J] !TimeStep
852,1,refrigerator:InteriorEquipment:Electricity [J] !TimeStep
889,1,clotheswasher:InteriorEquipment:Electricity [J] !TimeStep
926,1,gas_dryer:InteriorEquipment:Electricity [J] !TimeStep
963,1,gas_range:InteriorEquipment:Electricity [J] !TimeStep
1000,1,television:InteriorEquipment:Electricity [J] !TimeStep
3131,1,InteriorEquipment:NaturalGas [J] !TimeStep
6853,1,Heating:Electricity [J] !TimeStep
6828,1,Heating:NaturalGas [J] !TimeStep
6983,1,Cooling:Electricity [J] !TimeStep
End of Data Dictionary
1,ANNUAL,  46.78, -71.29,  -5.00,  91.40
2,1, 1,12, 0, 1, 0.00,60.00,Sunday
11,40459142.96089496
95,913962.7514959001
779,27352700.548185937
815,438473.423252895
852,4720424.663127804
889,149180.07309967247
926,127842.46852420052
963,0.0
1000,0.0
3083,180580191.08026218
3131,5851976.339584516
6828,167244547.0801239
6853,0.0
6983,0.0
2,1, 1,12, 0, 2, 0.00,60.00,Sunday
11,38638391.305008024
95,913962.7514959001
779,25188735.308325555
815,194813.59912604262
852,4618322.922426349
889,119312.11413860306
926,76705.48111452046
963,0.0
1000,0.0
3083,182517805.9314885
3131,4661436.341888673
6828,173828094.24943465
6853,0.0
6983,0.0
2,1, 1,12, 0, 3, 0.00,60.00,Sunday
11,38443627.74016484
95,913962.7514959001
779,24719704.00179709
815,145967.37412523094
852,4517408.4112679325
889,59576.19621646439
926,51136.98740968035
963,0.0
1000,0.0
3083,187443782.18754852
3131,3430522.5199065423
6828,181428676.16777796
6853,0.0
6983,0.0
2,1, 1,12, 0, 4, 0.00,60.00,Sunday
11,38342835.846124545
95,913962.7514959001
779,24230658.60467579
815,97406.7995630209
852,4383251.47290439
889,59576.19621646439
926,25568.493704840123
963,0.0
1000,0.0
3083,198711797.00440806
3131,2885363.2943852283
6828,192897247.4353057
6853,0.0
6983,0.0
2,1, 1,12, 0, 5, 0.00,60.00,Sunday
11,39653520.045401275
95,2741888.254487699
779,23505448.378342796
815,97406.7995630209
852,4315579.388951098
889,119312.11413860306
926,51136.98740968035
963,0.0
1000,0.0
3083,209357281.01118687
3131,4033008.4681529924
6828,199336938.1368167
6853,0.0
6983,0.0
2,1, 1,12, 0, 6, 0.00,60.00,Sunday
11,45060180.733796746
95,5712267.196849375
779,25978999.127304506
815,292220.39868906356
852,4315579.388951098
889,179048.03206074148
926,76705.48111452046
963,0.0
1000,0.0
3083,221781296.0631579
3131,5429009.773218915
6828,198801348.1124128
6853,0.0
6983,0.0
2,1, 1,12, 0, 7, 0.00,60.00,Sunday
11,45098619.91204879
95,6397739.2604713
779,30028357.648489095
815,584726.447816728
852,4484165.9840628095
889,358096.06412148295
926,204547.94963872098
963,0.0
1000,0.0
3083,245146114.8614704
3131,11071886.833631942
6828,194463255.25127894
6853,0.0
6983,0.0
2,1, 1,12, 0, 8, 0.00,60.00,Sunday
11,47168930.28801557
95,5712267.196849375
779,32706291.21586303
815,877232.4969443938
852,4720424.663127804
889,776087.7678707795
926,409095.89927744196
963,0.0
1000,0.0
3083,263876007.37016752
3131,18816651.74731952
6828,196837882.4116275
6853,0.0
6983,0.0
2,1, 1,12, 0, 9, 0.00,60.00,Sunday
11,41384267.412256196
95,2513397.5666137254
779,30183519.871527705
815,1657343.844764368
852,4821339.174286224
889,1164211.5126590051
926,623845.4196367817
963,0.0
1000,0.0
3083,268427356.82980877
3131,23540665.363830738
6828,195198320.85742614
6853,0.0
6983,0.0
2,1, 1,12, 0,10, 0.00,60.00,Sunday
11,38213811.56902687
95,1713680.159054812
779,27646938.289928388
815,1852157.4438904074
852,4889011.258239515
889,1373287.2253864906
926,879530.356685183
963,0.0
1000,0.0
3083,275744707.5783369
3131,28889710.767046157
6828,200481675.72894746
6853,0.0
6983,0.0
2,1, 1,12, 0,11, 0.00,60.00,Sunday
11,38225117.269701704
95,1713680.159054812
779,27771352.927894708
815,1608497.6197635545
852,4720424.663127804
889,1343419.2664254215
926,1007372.8252093834
963,0.0
1000,0.0
3083,269219549.46751165
3131,30430425.224975333
6828,198189304.50100318
6853,0.0
6983,0.0
2,1, 1,12, 0,12, 0.00,60.00,Sunday
11,37879088.36107686
95,1713680.159054812
779,27425137.87962011
815,1364837.795636699
852,4720424.663127804
889,1194079.4716200747
926,1048308.2418984461
963,0.0
1000,0.0
3083,265917784.91514355
3131,32642950.0846883
6828,198570307.88974738
6853,0.0
6983,0.0
2,1, 1,12, 0,13, 0.00,60.00,Sunday
11,37347290.072570674
95,1713680.159054812
779,26931862.371363785
815,1169738.5460720598
852,4955496.112649762
889,1074607.6357757982
926,956235.8377997031
963,0.0
1000,0.0
3083,259844297.79459238
3131,32116125.78860367
6828,197623409.42792517
6853,0.0
6983,0.0
2,1, 1,12, 0,14, 0.00,60.00,Sunday
11,38000773.6101244
95,1713680.159054812
779,27521152.320463695
815,1315991.5706358887
852,4955496.112649762
889,955295.5216371961
926,869328.7859645649
963,0.0
1000,0.0
3083,254546199.12476245
3131,28332548.93900536
6828,199237024.60055473
6853,0.0
6983,0.0
2,1, 1,12, 0,15, 0.00,60.00,Sunday
11,38460546.756572686
95,1713680.159054812
779,28098420.546367235
815,1072331.7465090365
852,4889011.258239515
889,835823.6857929175
926,782421.7341294265
963,0.0
1000,0.0
3083,246425612.65605482
3131,26241082.17973883
6828,195745357.81746274
6853,0.0
6983,0.0
2,1, 1,12, 0,16, 0.00,60.00,Sunday
11,40747913.40024383
95,2970378.9423616747
779,29155972.865033984
815,1023485.5215082268
852,4955496.112649762
889,776087.7678707795
926,741486.3174403644
963,0.0
1000,0.0
3083,245758041.72868073
3131,27984173.243114583
6828,194566781.47729325
6853,0.0
6983,0.0
2,1, 1,12, 0,17, 0.00,60.00,Sunday
11,48392032.9659764
95,6397739.2604713
779,33439684.12781704
815,1072331.7465090365
852,5226184.44846293
889,805955.7268318479
926,715917.8237355244
963,0.0
1000,0.0
3083,253850846.07710913
3131,34690151.07145464
6828,192373445.35697407
6853,0.0
6983,0.0
2,1, 1,12, 0,18, 0.00,60.00,Sunday
11,56694854.44313414
95,8911136.827085022
779,39745329.539308414
815,1413398.3701989125
852,5731944.233798051
889,776087.7678707795
926,700550.900751302
963,0.0
1000,0.0
3083,256906531.1686086
3131,46145019.54326164
6828,178250718.0987442
6853,0.0
6983,0.0
2,1, 1,12, 0,19, 0.00,60.00,Sunday
11,67802442.6502552
95,11995761.113383692
779,43617977.676604085
815,2486015.7671465483
852,5900530.828909755
889,776087.7678707795
926,664780.8363258442
963,0.0
1000,0.0
3083,245737437.59640646
3131,39168572.04791574
6828,168171609.80515063
6853,0.0
6983,0.0
2,1, 1,12, 0,20, 0.00,60.00,Sunday
11,70853875.91083199
95,13294003.658122186
779,45209551.04674158
815,3168434.664964901
852,5731944.233798051
889,776087.7678707795
926,654579.2656052251
963,0.0
1000,0.0
3083,240411023.76742578
3131,28029144.924741067
6828,172781773.89773527
6853,0.0
6983,0.0
2,1, 1,12, 0,21, 0.00,60.00,Sunday
11,71358827.37455665
95,13294003.658122186
779,45675432.05836988
815,2583422.566709569
852,5563357.63868634
889,776087.7678707795
926,674982.407046462
963,0.0
1000,0.0
3083,234476038.19298217
3131,23724929.214083172
6828,174341440.09992766
6853,0.0
6983,0.0
2,1, 1,12, 0,22, 0.00,60.00,Sunday
11,66818500.22989772
95,10053590.266454902
779,44044333.783121735
815,1901003.6688912208
852,5461255.897984883
889,746219.8089097101
926,700550.900751302
963,0.0
1000,0.0
3083,238087118.36960492
3131,22107072.31167421
6828,184074632.34509552
6853,0.0
6983,0.0
2,1, 1,12, 0,23, 0.00,60.00,Sunday
11,56676477.36147632
95,5598021.852912389
779,38054912.15261661
815,1267145.345635079
852,5226184.44846293
889,507435.85892682965
926,562506.8615064835
963,0.0
1000,0.0
3083,234309166.29706007
3131,17096049.650594376
6828,193219945.87968963
6853,0.0
6983,0.0
2,1, 1,12, 0,24, 0.00,60.00,Sunday
11,48624678.31351243
95,2284906.8787397505
779,32838385.066147096
815,877232.4969443938
852,4889011.258239515
889,268651.90894395043
926,306821.9244580813
963,0.0
1000,0.0
3083,233497183.1128251
3131,10578766.75697427
6828,207382845.8218066
6853,0.0
6983,0.0
End of Data
 Number of Records Written=         336
