Program Version,EnergyPlus, Version 9.6.0-f420c06a69, YMD=2024.05.14 12:31
1,5,Environment Title[],Latitude[deg],Longitude[deg],Time Zone[],Elevation[m]
2,8,Day of Simulation[],Month[],Day of Month[],DST Indicator[1=yes 0=no],Hour[],StartMinute[],EndMinute[],DayType
3,5,Cumulative Day of Simulation[],Month[],Day of Month[],DST Indicator[1=yes 0=no],DayType  ! When Daily Report Variables Requested
4,2,Cumulative Days of Simulation[],Month[]  ! When Monthly Report Variables Requested
5,1,Cumulative Days of Simulation[] ! When Run Period Report Variables Requested
6,1,Calendar Year of Simulation[] ! When Annual Report Variables Requested
7,1,Environment,Site Outdoor Air Drybulb Temperature [C] !TimeStep
8,1,Environment,Site Outdoor Air Dewpoint Temperature [C] !TimeStep
9,1,Environment,Site Outdoor Air Wetbulb Temperature [C] !Hourly
648,1,LIVING_UNIT1,Zone Mean Air Temperature [C] !TimeStep
11,1,Electricity:Facility [J] !TimeStep
133,1,InteriorEquipment:Electricity [J] !TimeStep
95,1,General:InteriorLights:Electricity [J] !TimeStep
169,1,dishwasher:InteriorEquipment:Electricity [J] !TimeStep
206,1,refrigerator:InteriorEquipment:Electricity [J] !TimeStep
243,1,clotheswasher:InteriorEquipment:Electricity [J] !TimeStep
354,1,television:InteriorEquipment:Electricity [J] !TimeStep
554,1,Heating:Electricity [J] !TimeStep
515,1,Cooling:Electricity [J] !TimeStep
End of Data Dictionary
1,ANNUAL,  46.78, -71.29,  -5.00,  91.40
2,1, 1,12, 0, 1, 0.00,60.00,Sunday
7,-2.0
8,-2.000002335045541
648,22.000057352253776
11,14824041.442016728
95,83652.61855354601
133,2423710.5078233546
169,29359.646160636934
206,262245.8146182114
243,9989.88619413263
354,0.0
515,0.0
554,10872170.890791781
2,1, 1,12, 0, 1, 0.00,60.00,Sunday
9,-2.000002335045541
2,1, 1,12, 0, 2, 0.00,60.00,Sunday
7,-4.2
8,-4.2
648,22.000007673765865
11,18298121.283632047
95,83652.61855354601
133,2204854.2592960866
169,13044.481225768317
206,256573.49569035263
243,7989.769793380162
354,0.0
515,0.0
554,14565106.98093437
2,1, 1,12, 0, 2, 0.00,60.00,Sunday
9,-4.2
2,1, 1,12, 0, 3, 0.00,60.00,Sunday
7,-5.9
8,-6.198630539634405
648,21.999656261947507
11,19025841.51971282
95,83652.61855354601
133,2130968.725358217
169,9773.797516668043
206,250967.13395932948
243,3989.536991875235
354,0.0
515,0.0
554,15366712.750953013
2,1, 1,12, 0, 3, 0.00,60.00,Sunday
9,-6.198630539634405
2,1, 1,12, 0, 4, 0.00,60.00,Sunday
7,-7.2
8,-7.555630191230219
648,21.999753843222788
11,20972745.796544213
95,83652.61855354601
133,2076109.0398318248
169,6522.2406128841585
206,243513.97071691064
243,3989.536991875235
354,0.0
515,0.0
554,17368476.7133108
2,1, 1,12, 0, 4, 0.00,60.00,Sunday
9,-7.555630191230219
2,1, 1,12, 0, 5, 0.00,60.00,Sunday
7,-8.0
8,-8.48978480259312
648,21.99956185130754
11,21944858.532925494
95,250957.855660638
133,2048824.1082936786
169,6522.2406128841585
206,239754.41049728324
243,7989.769793380162
354,0.0
515,0.0
554,18197023.48576683
2,1, 1,12, 0, 5, 0.00,60.00,Sunday
9,-8.48978480259312
2,1, 1,12, 0, 6, 0.00,60.00,Sunday
7,-8.3
8,-8.6320544214861
648,21.999489852686622
11,21853202.228162244
95,522828.86595966254
133,2304415.351728236
169,19566.721838652476
206,239754.41049728324
243,11990.002594885089
354,0.0
515,0.0
554,17572143.23244101
2,1, 1,12, 0, 6, 0.00,60.00,Sunday
9,-8.6320544214861
2,1, 1,12, 0, 7, 0.00,60.00,Sunday
7,-8.5
8,-8.82783271692919
648,21.999665898323723
11,26480437.864694618
95,585568.329874822
133,2820625.9585106582
169,39152.57048262144
206,249120.3324479338
243,23980.005189770178
354,0.0
515,0.0
554,20101134.04741086
2,1, 1,12, 0, 7, 0.00,60.00,Sunday
9,-8.82783271692919
2,1, 1,12, 0, 8, 0.00,60.00,Sunday
7,-8.8
8,-9.12154745585115
648,21.999698110996363
11,27554461.78699463
95,522828.86595966254
133,3274713.361686757
169,58738.41912658998
206,262245.8146182114
243,51970.93899067497
354,0.0
515,0.0
554,20758380.74006059
2,1, 1,12, 0, 8, 0.00,60.00,Sunday
9,-9.12154745585115
2,1, 1,12, 0, 9, 0.00,60.00,Sunday
7,-9.5
8,-9.84154915451958
648,21.99982023896013
11,23787573.762406975
95,230044.7010222515
133,3173562.028195702
169,110973.72444561248
206,267852.1763492346
243,77961.75639082717
354,0.0
515,0.0
554,18266131.770775203
2,1, 1,12, 0, 9, 0.00,60.00,Sunday
9,-9.84154915451958
2,1, 1,12, 0,10, 0.00,60.00,Sunday
7,-10.3
8,-10.851947589119767
648,21.999904064700058
11,23909165.3599574
95,156848.65978789877
133,3108320.649174777
169,124018.20567138083
206,271611.73656886193
243,91962.57119609449
354,0.0
515,0.0
554,18522552.589121494
2,1, 1,12, 0,10, 0.00,60.00,Sunday
9,-10.851947589119767
2,1, 1,12, 0,11, 0.00,60.00,Sunday
7,-10.7
8,-11.683582416890017
648,21.999635293275862
11,25462206.92226269
95,156848.65978789877
133,3180213.4409553325
169,107703.04073651227
206,262245.8146182114
243,89962.45479534201
354,0.0
515,0.0
554,19154499.630171813
2,1, 1,12, 0,11, 0.00,60.00,Sunday
9,-11.683582416890017
2,1, 1,12, 0,12, 0.00,60.00,Sunday
7,-10.8
8,-11.743740311828423
648,21.99980829207841
11,23412261.02071204
95,156848.65978789877
133,3226508.9837262738
169,91387.87580164369
206,262245.8146182114
243,79961.87279157966
354,0.0
515,0.0
554,17758141.251594033
2,1, 1,12, 0,12, 0.00,60.00,Sunday
9,-11.743740311828423
2,1, 1,12, 0,13, 0.00,60.00,Sunday
7,-10.6
8,-11.523093849872815
648,21.999770655101486
11,20403443.82607225
95,156848.65978789877
133,3164107.770883791
169,78324.26777055899
206,275305.33959165344
243,71961.40718856991
354,0.0
515,0.0
554,15792101.603714995
2,1, 1,12, 0,13, 0.00,60.00,Sunday
9,-11.523093849872815
2,1, 1,12, 0,14, 0.00,60.00,Sunday
7,-10.3
8,-11.438126231914245
648,21.999778749727973
11,22926292.609465625
95,156848.65978789877
133,3097944.404906937
169,88117.19209254326
206,275305.33959165344
243,63971.63739518969
354,0.0
515,0.0
554,17558007.814205144
2,1, 1,12, 0,14, 0.00,60.00,Sunday
9,-11.438126231914245
2,1, 1,12, 0,15, 0.00,60.00,Sunday
7,-9.8
8,-10.839810800675263
648,21.999862990433428
11,24542522.182805013
95,156848.65978789877
133,3092850.3958465457
169,71802.02715767492
206,271611.73656886193
243,55971.17179217984
354,0.0
515,0.0
554,18324682.6837316
2,1, 1,12, 0,15, 0.00,60.00,Sunday
9,-10.839810800675263
2,1, 1,12, 0,16, 0.00,60.00,Sunday
7,-9.3
8,-10.26873986632781
648,22.000259219269154
11,22262280.409987293
95,271871.0102990245
133,3238555.609166743
169,68531.3434485745
206,275305.33959165344
243,51970.93899067497
354,0.0
515,0.0
554,16659031.334026791
2,1, 1,12, 0,16, 0.00,60.00,Sunday
9,-10.26873986632781
2,1, 1,12, 0,17, 0.00,60.00,Sunday
7,-9.0
8,-9.631936030197465
648,21.999863262122087
11,21792287.9358633
95,585568.329874822
133,3809769.245643656
169,71802.02715767492
206,290343.58047016273
243,53971.055391427355
354,0.0
515,0.0
554,16097478.819121236
2,1, 1,12, 0,17, 0.00,60.00,Sunday
9,-9.631936030197465
2,1, 1,12, 0,18, 0.00,60.00,Sunday
7,-9.0
8,-9.5608035705968
648,21.999955678600678
11,22357992.098260902
95,815613.0308970734
133,4691880.402814431
169,94639.43270542756
206,318441.34632211406
243,51970.93899067497
354,0.0
515,0.0
554,15340616.464323543
2,1, 1,12, 0,18, 0.00,60.00,Sunday
9,-9.5608035705968
2,1, 1,12, 0,19, 0.00,60.00,Sunday
7,-9.1
8,-10.008556105180014
648,21.999896175212434
11,25984777.972897716
95,1097940.6185152913
133,4790626.610930283
169,166460.58666841884
206,327807.2682727643
243,51970.93899067497
354,0.0
515,0.0
554,16967776.655207667
2,1, 1,12, 0,19, 0.00,60.00,Sunday
9,-10.008556105180014
2,1, 1,12, 0,20, 0.00,60.00,Sunday
7,-9.4
8,-10.742193848268183
648,21.99985783262948
11,26538143.937271502
95,1216765.360778851
133,4580943.455324915
169,212154.52456924066
206,318441.34632211406
243,51970.93899067497
354,0.0
515,0.0
554,17579971.401647136
2,1, 1,12, 0,20, 0.00,60.00,Sunday
9,-10.742193848268183
2,1, 1,12, 0,21, 0.00,60.00,Sunday
7,-10.1
8,-11.31333528157844
648,21.999905144225046
11,22990353.048923593
95,1216765.360778851
133,4508531.5501760645
169,172982.8272813029
206,309075.4243714635
243,51970.93899067497
354,0.0
515,0.0
554,15388272.596957382
2,1, 1,12, 0,21, 0.00,60.00,Sunday
9,-11.31333528157844
2,1, 1,12, 0,22, 0.00,60.00,Sunday
7,-10.9
8,-12.205826279051855
648,21.999795756036107
11,23008492.048173748
95,920178.804089006
133,4334308.999572631
169,127288.88938048104
206,303403.1054436047
243,49970.82258992248
354,0.0
515,0.0
554,16291768.527882557
2,1, 1,12, 0,22, 0.00,60.00,Sunday
9,-12.205826279051855
2,1, 1,12, 0,23, 0.00,60.00,Sunday
7,-12.1
8,-13.098383856871454
648,21.99967192974514
11,27835488.21268665
95,512372.28864046925
133,3677044.413760686
169,84846.50838344306
206,290343.58047016273
243,33980.58719353241
354,0.0
515,0.0
554,20528595.293188035
2,1, 1,12, 0,23, 0.00,60.00,Sunday
9,-13.098383856871454
2,1, 1,12, 0,24, 0.00,60.00,Sunday
7,-13.5
8,-14.428912969801702
648,21.999883394071645
11,25243824.527261287
95,209131.546383865
133,3037549.134809546
169,58738.41912658998
206,271611.73656886193
243,17990.35179714245
354,0.0
515,0.0
554,19876123.6754951
2,1, 1,12, 0,24, 0.00,60.00,Sunday
9,-14.428912969801702
End of Data
 Number of Records Written=         312
