Program Version,EnergyPlus, Version 9.6.0-f420c06a69, YMD=2024.05.14 12:31
1,5,Environment Title[],Latitude[deg],Longitude[deg],Time Zone[],Elevation[m]
2,8,Day of Simulation[],Month[],Day of Month[],DST Indicator[1=yes 0=no],Hour[],StartMinute[],EndMinute[],DayType
3,5,Cumulative Day of Simulation[],Month[],Day of Month[],DST Indicator[1=yes 0=no],DayType  ! When Daily Meters Requested
4,2,Cumulative Days of Simulation[],Month[]  ! When Monthly Meters Requested
5,1,Cumulative Days of Simulation[] ! When Run Period Meters Requested
6,1,Calendar Year of Simulation[] ! When Annual Meters Requested
11,1,Electricity:Facility [J] !TimeStep
133,1,InteriorEquipment:Electricity [J] !TimeStep
95,1,General:InteriorLights:Electricity [J] !TimeStep
169,1,dishwasher:InteriorEquipment:Electricity [J] !TimeStep
206,1,refrigerator:InteriorEquipment:Electricity [J] !TimeStep
243,1,clotheswasher:InteriorEquipment:Electricity [J] !TimeStep
354,1,television:InteriorEquipment:Electricity [J] !TimeStep
1133,1,Heating:Electricity [J] !TimeStep
515,1,Cooling:Electricity [J] !TimeStep
End of Data Dictionary
1,ANNUAL,  46.78, -71.29,  -5.00,  91.40
2,1, 1,12, 0, 1, 0.00,60.00,Sunday
11,34315375.27128133
95,125478.927830319
133,2796420.9730918175
169,29359.646160636934
206,262245.8146182114
243,9989.88619413263
354,0.0
515,0.0
1133,30171829.160232775
2,1, 1,12, 0, 2, 0.00,60.00,Sunday
11,36166260.486921035
95,125478.927830319
133,2548022.4218731336
169,13044.481225768317
206,256573.49569035263
243,7989.769793380162
354,0.0
515,0.0
1133,32213308.100439534
2,1, 1,12, 0, 3, 0.00,60.00,Sunday
11,36668010.36835162
95,125478.927830319
133,2470158.126630023
169,9773.797516668043
206,250967.13395932948
243,3989.536991875235
354,0.0
515,0.0
1133,32776962.311368536
2,1, 1,12, 0, 4, 0.00,60.00,Sunday
11,38523261.30948061
95,125478.927830319
133,2410523.9275373416
169,6522.2406128841585
206,243513.97071691064
243,3989.536991875235
354,0.0
515,0.0
1133,34639120.133189626
2,1, 1,12, 0, 5, 0.00,60.00,Sunday
11,39646951.236552075
95,376436.783490957
133,2370606.4288550545
169,6522.2406128841585
206,239754.41049728324
243,7989.769793380162
354,0.0
515,0.0
1133,35523191.41481903
2,1, 1,12, 0, 6, 0.00,60.00,Sunday
11,39437209.69421933
95,784243.2989394937
133,2663498.559526247
169,19566.721838652476
206,239754.41049728324
243,11990.002594885089
354,0.0
515,0.0
1133,34632217.60783534
2,1, 1,12, 0, 7, 0.00,60.00,Sunday
11,44130403.58882455
95,878352.4948122329
133,3235511.293614676
169,39152.57048262144
206,249120.3324479338
243,23980.005189770178
354,0.0
515,0.0
1133,37075486.32909427
2,1, 1,12, 0, 8, 0.00,60.00,Sunday
11,45210143.5632222
95,784243.2989394937
133,3715560.114307474
169,58738.41912658998
206,262245.8146182114
243,51970.93899067497
354,0.0
515,0.0
1133,37725745.172412954
2,1, 1,12, 0, 9, 0.00,60.00,Sunday
11,41574168.202773936
95,345067.0515333772
133,3546272.4934641644
169,110973.72444561248
206,267852.1763492346
243,77961.75639082717
354,0.0
515,0.0
1133,35606519.86928666
2,1, 1,12, 0,10, 0.00,60.00,Sunday
11,42160786.536017925
95,235272.9896818481
133,3425527.3942351257
169,124018.20567138083
206,271611.73656886193
243,91962.57119609449
354,0.0
515,0.0
1133,36425420.932428986
2,1, 1,12, 0,11, 0.00,60.00,Sunday
11,44298128.81219745
95,235272.9896818481
133,3504880.3634630083
169,107703.04073651227
206,262245.8146182114
243,89962.45479534201
354,0.0
515,0.0
1133,37601590.894493476
2,1, 1,12, 0,12, 0.00,60.00,Sunday
11,43203906.04416944
95,235272.9896818481
133,3551275.3752665804
169,91387.87580164369
206,262245.8146182114
243,79961.87279157966
354,0.0
515,0.0
1133,36760889.56793166
2,1, 1,12, 0,13, 0.00,60.00,Sunday
11,39423994.68057279
95,235272.9896818481
133,3483403.3656293917
169,78324.26777055899
206,275305.33959165344
243,71961.40718856991
354,0.0
515,0.0
1133,34514821.183596775
2,1, 1,12, 0,14, 0.00,60.00,Sunday
11,39784790.60403349
95,235272.9896818481
133,3428281.0622745813
169,88117.19209254326
206,275305.33959165344
243,63971.63739518969
354,0.0
515,0.0
1133,34919286.89437711
2,1, 1,12, 0,15, 0.00,60.00,Sunday
11,43738488.88217913
95,235272.9896818481
133,3441787.762316192
169,71802.02715767492
206,271611.73656886193
243,55971.17179217984
354,0.0
515,0.0
1133,37138713.533656135
2,1, 1,12, 0,16, 0.00,60.00,Sunday
11,42735707.286593355
95,407806.5154485367
133,3606889.4369994397
169,68531.3434485745
206,275305.33959165344
243,51970.93899067497
354,0.0
515,0.0
1133,36251089.8873307
2,1, 1,12, 0,17, 0.00,60.00,Sunday
11,40598794.61543698
95,878352.4948122329
133,4245443.608567559
169,71802.02715767492
206,290343.58047016273
243,53971.055391427355
354,0.0
515,0.0
1133,34282007.77255499
2,1, 1,12, 0,18, 0.00,60.00,Sunday
11,41299983.014250204
95,1223419.5463456102
133,5221155.125444132
169,94639.43270542756
206,318441.34632211406
243,51970.93899067497
354,0.0
515,0.0
1133,33273810.30103175
2,1, 1,12, 0,19, 0.00,60.00,Sunday
11,44656070.19596348
95,1646910.9277729366
133,5365259.212439732
169,166460.58666841884
206,327807.2682727643
243,51970.93899067497
354,0.0
515,0.0
1133,34606005.98361218
2,1, 1,12, 0,20, 0.00,60.00,Sunday
11,44877282.20806242
95,1825148.0411682762
133,5174077.296903736
169,212154.52456924066
206,318441.34632211406
243,51970.93899067497
354,0.0
515,0.0
1133,35087182.1433489
2,1, 1,12, 0,21, 0.00,60.00,Sunday
11,40765482.15904475
95,1825148.0411682762
133,5122056.543444246
169,172982.8272813029
206,309075.4243714635
243,51970.93899067497
354,0.0
515,0.0
1133,32506510.67925167
2,1, 1,12, 0,22, 0.00,60.00,Sunday
11,44531076.79824157
95,1380268.2061335088
133,4933510.452141945
169,127288.88938048104
206,303403.1054436047
243,49970.82258992248
354,0.0
515,0.0
1133,35990190.68095983
2,1, 1,12, 0,23, 0.00,60.00,Sunday
11,46450310.25358561
95,768558.4329607037
133,4195576.480866236
169,84846.50838344306
206,290343.58047016273
243,33980.58719353241
354,0.0
515,0.0
1133,38346157.086587325
2,1, 1,12, 0,24, 0.00,60.00,Sunday
11,43929003.40653785
95,313697.3195757975
133,3488143.8526281044
169,58738.41912658998
206,271611.73656886193
243,17990.35179714245
354,0.0
515,0.0
1133,38095615.774043515
End of Data
 Number of Records Written=         216
