Program Version,EnergyPlus, Version 9.6.0-f420c06a69, YMD=2024.05.14 12:32
1,5,Environment Title[],Latitude[deg],Longitude[deg],Time Zone[],Elevation[m]
2,8,Day of Simulation[],Month[],Day of Month[],DST Indicator[1=yes 0=no],Hour[],StartMinute[],EndMinute[],DayType
3,5,Cumulative Day of Simulation[],Month[],Day of Month[],DST Indicator[1=yes 0=no],DayType  ! When Daily Report Variables Requested
4,2,Cumulative Days of Simulation[],Month[]  ! When Monthly Report Variables Requested
5,1,Cumulative Days of Simulation[] ! When Run Period Report Variables Requested
6,1,Calendar Year of Simulation[] ! When Annual Report Variables Requested
7,1,Environment,Site Outdoor Air Drybulb Temperature [C] !TimeStep
8,1,Environment,Site Outdoor Air Dewpoint Temperature [C] !TimeStep
9,1,Environment,Site Outdoor Air Wetbulb Temperature [C] !Hourly
648,1,LIVING_UNIT1,Zone Mean Air Temperature [C] !TimeStep
11,1,Electricity:Facility [J] !TimeStep
133,1,InteriorEquipment:Electricity [J] !TimeStep
95,1,General:InteriorLights:Electricity [J] !TimeStep
169,1,dishwasher:InteriorEquipment:Electricity [J] !TimeStep
206,1,refrigerator:InteriorEquipment:Electricity [J] !TimeStep
243,1,clotheswasher:InteriorEquipment:Electricity [J] !TimeStep
354,1,television:InteriorEquipment:Electricity [J] !TimeStep
554,1,Heating:Electricity [J] !TimeStep
515,1,Cooling:Electricity [J] !TimeStep
End of Data Dictionary
1,ANNUAL,  46.78, -71.29,  -5.00,  91.40
2,1, 1,12, 0, 1, 0.00,60.00,Sunday
7,-2.0
8,-2.000002335045541
648,22.00010875285536
11,28675466.384952553
95,125478.927830319
133,2796420.9730918175
169,29359.646160636934
206,262245.8146182114
243,9989.88619413263
354,0.0
515,0.0
554,24033392.197015792
2,1, 1,12, 0, 1, 0.00,60.00,Sunday
9,-2.000002335045541
2,1, 1,12, 0, 2, 0.00,60.00,Sunday
7,-4.2
8,-4.2
648,21.999973923990147
11,31001334.54365445
95,125478.927830319
133,2548022.4218731336
169,13044.481225768317
206,256573.49569035263
243,7989.769793380162
354,0.0
515,0.0
554,26607658.90693637
2,1, 1,12, 0, 2, 0.00,60.00,Sunday
9,-4.2
2,1, 1,12, 0, 3, 0.00,60.00,Sunday
7,-5.9
8,-6.198630539634405
648,22.00005751898914
11,31654879.67052345
95,125478.927830319
133,2470158.126630023
169,9773.797516668043
206,250967.13395932948
243,3989.536991875235
354,0.0
515,0.0
554,27339068.329048485
2,1, 1,12, 0, 3, 0.00,60.00,Sunday
9,-6.198630539634405
2,1, 1,12, 0, 4, 0.00,60.00,Sunday
7,-7.2
8,-7.555630191230219
648,21.999863108581494
11,33806434.51947387
95,125478.927830319
133,2410523.9275373416
169,6522.2406128841585
206,243513.97071691064
243,3989.536991875235
354,0.0
515,0.0
554,29550257.37709159
2,1, 1,12, 0, 4, 0.00,60.00,Sunday
9,-7.555630191230219
2,1, 1,12, 0, 5, 0.00,60.00,Sunday
7,-8.0
8,-8.48978480259312
648,21.9997088215053
11,35033755.219996765
95,376436.783490957
133,2370606.4288550545
169,6522.2406128841585
206,239754.41049728324
243,7989.769793380162
354,0.0
515,0.0
554,30562992.062279828
2,1, 1,12, 0, 5, 0.00,60.00,Sunday
9,-8.48978480259312
2,1, 1,12, 0, 6, 0.00,60.00,Sunday
7,-8.3
8,-8.6320544214861
648,21.999738514052115
11,35186733.81281758
95,784243.2989394937
133,2663498.559526247
169,19566.721838652476
206,239754.41049728324
243,11990.002594885089
354,0.0
515,0.0
554,30009510.314151924
2,1, 1,12, 0, 6, 0.00,60.00,Sunday
9,-8.6320544214861
2,1, 1,12, 0, 7, 0.00,60.00,Sunday
7,-8.5
8,-8.82783271692919
648,21.999395354812542
11,39835212.84987643
95,878352.4948122329
133,3235511.293614676
169,39152.57048262144
206,249120.3324479338
243,23980.005189770178
354,0.0
515,0.0
554,32475599.22671927
2,1, 1,12, 0, 7, 0.00,60.00,Sunday
9,-8.82783271692919
2,1, 1,12, 0, 8, 0.00,60.00,Sunday
7,-8.8
8,-9.12154745585115
648,21.999749818386043
11,41025910.92397585
95,784243.2989394937
133,3715560.114307474
169,58738.41912658998
206,262245.8146182114
243,51970.93899067497
354,0.0
515,0.0
554,33255093.871575408
2,1, 1,12, 0, 8, 0.00,60.00,Sunday
9,-9.12154745585115
2,1, 1,12, 0, 9, 0.00,60.00,Sunday
7,-9.5
8,-9.84154915451958
648,21.999948686181533
11,37693845.3379141
95,345067.0515333772
133,3546272.4934641644
169,110973.72444561248
206,267852.1763492346
243,77961.75639082717
354,0.0
515,0.0
554,31391714.754314896
2,1, 1,12, 0, 9, 0.00,60.00,Sunday
9,-9.84154915451958
2,1, 1,12, 0,10, 0.00,60.00,Sunday
7,-10.3
8,-10.851947589119767
648,21.999856090766727
11,38327037.83552885
95,235272.9896818481
133,3425527.3942351257
169,124018.20567138083
206,271611.73656886193
243,91962.57119609449
354,0.0
515,0.0
554,32269448.754022293
2,1, 1,12, 0,10, 0.00,60.00,Sunday
9,-10.851947589119767
2,1, 1,12, 0,11, 0.00,60.00,Sunday
7,-10.7
8,-11.683582416890017
648,21.999748897326334
11,40057084.57198107
95,235272.9896818481
133,3504880.3634630083
169,107703.04073651227
206,262245.8146182114
243,89962.45479534201
354,0.0
515,0.0
554,33070412.0051919
2,1, 1,12, 0,11, 0.00,60.00,Sunday
9,-11.683582416890017
2,1, 1,12, 0,12, 0.00,60.00,Sunday
7,-10.8
8,-11.743740311828423
648,22.00016288090066
11,39127422.64493104
95,235272.9896818481
133,3551275.3752665804
169,91387.87580164369
206,262245.8146182114
243,79961.87279157966
354,0.0
515,0.0
554,32389019.034975223
2,1, 1,12, 0,12, 0.00,60.00,Sunday
9,-11.743740311828423
2,1, 1,12, 0,13, 0.00,60.00,Sunday
7,-10.6
8,-11.523093849872815
648,22.000405609451573
11,35319146.97855505
95,235272.9896818481
133,3483403.3656293917
169,78324.26777055899
206,275305.33959165344
243,71961.40718856991
354,0.0
515,0.0
554,30034417.969391674
2,1, 1,12, 0,13, 0.00,60.00,Sunday
9,-11.523093849872815
2,1, 1,12, 0,14, 0.00,60.00,Sunday
7,-10.3
8,-11.438126231914245
648,21.999865872195606
11,35319198.39462921
95,235272.9896818481
133,3428281.0622745813
169,88117.19209254326
206,275305.33959165344
243,63971.63739518969
354,0.0
515,0.0
554,30089591.688820638
2,1, 1,12, 0,14, 0.00,60.00,Sunday
9,-11.438126231914245
2,1, 1,12, 0,15, 0.00,60.00,Sunday
7,-9.8
8,-10.839810800675263
648,22.000080975881964
11,39055833.3497866
95,235272.9896818481
133,3441787.762316192
169,71802.02715767492
206,271611.73656886193
243,55971.17179217984
354,0.0
515,0.0
554,32153051.655239955
2,1, 1,12, 0,15, 0.00,60.00,Sunday
9,-10.839810800675263
2,1, 1,12, 0,16, 0.00,60.00,Sunday
7,-9.3
8,-10.26873986632781
648,22.00028320311941
11,37952916.03107757
95,407806.5154485367
133,3606889.4369994397
169,68531.3434485745
206,275305.33959165344
243,51970.93899067497
354,0.0
515,0.0
554,31152142.079637304
2,1, 1,12, 0,16, 0.00,60.00,Sunday
9,-10.26873986632781
2,1, 1,12, 0,17, 0.00,60.00,Sunday
7,-9.0
8,-9.631936030197465
648,21.999723450569963
11,36200399.48484406
95,878352.4948122329
133,4245443.608567559
169,71802.02715767492
206,290343.58047016273
243,53971.055391427355
354,0.0
515,0.0
554,29501464.978074096
2,1, 1,12, 0,17, 0.00,60.00,Sunday
9,-9.631936030197465
2,1, 1,12, 0,18, 0.00,60.00,Sunday
7,-9.0
8,-9.5608035705968
648,22.000324453447895
11,36999001.19043548
95,1223419.5463456102
133,5221155.125444132
169,94639.43270542756
206,318441.34632211406
243,51970.93899067497
354,0.0
515,0.0
554,28561888.73454
2,1, 1,12, 0,18, 0.00,60.00,Sunday
9,-9.5608035705968
2,1, 1,12, 0,19, 0.00,60.00,Sunday
7,-9.1
8,-10.008556105180014
648,22.0001872368372
11,39961873.71912797
95,1646910.9277729366
133,5365259.212439732
169,166460.58666841884
206,327807.2682727643
243,51970.93899067497
354,0.0
515,0.0
554,29537107.252896737
2,1, 1,12, 0,19, 0.00,60.00,Sunday
9,-10.008556105180014
2,1, 1,12, 0,20, 0.00,60.00,Sunday
7,-9.4
8,-10.742193848268183
648,21.99983821545016
11,39782322.64534651
95,1825148.0411682762
133,5174077.296903736
169,212154.52456924066
206,318441.34632211406
243,51970.93899067497
354,0.0
515,0.0
554,29641989.01299853
2,1, 1,12, 0,20, 0.00,60.00,Sunday
9,-10.742193848268183
2,1, 1,12, 0,21, 0.00,60.00,Sunday
7,-10.1
8,-11.31333528157844
648,22.000151239838083
11,36233232.00240992
95,1825148.0411682762
133,5122056.543444246
169,172982.8272813029
206,309075.4243714635
243,51970.93899067497
354,0.0
515,0.0
554,27541839.353733275
2,1, 1,12, 0,21, 0.00,60.00,Sunday
9,-11.31333528157844
2,1, 1,12, 0,22, 0.00,60.00,Sunday
7,-10.9
8,-12.205826279051855
648,21.999756942057722
11,40572362.142906025
95,1380268.2061335088
133,4933510.452141945
169,127288.88938048104
206,303403.1054436047
243,49970.82258992248
354,0.0
515,0.0
554,31529050.930376835
2,1, 1,12, 0,22, 0.00,60.00,Sunday
9,-12.205826279051855
2,1, 1,12, 0,23, 0.00,60.00,Sunday
7,-12.1
8,-13.098383856871454
648,21.999771433402408
11,42551956.45692678
95,768558.4329607037
133,4195576.480866236
169,84846.50838344306
206,290343.58047016273
243,33980.58719353241
354,0.0
515,0.0
554,34237761.315528825
2,1, 1,12, 0,23, 0.00,60.00,Sunday
9,-13.098383856871454
2,1, 1,12, 0,24, 0.00,60.00,Sunday
7,-13.5
8,-14.428912969801702
648,22.00052023701851
11,39232614.772658736
95,313697.3195757975
133,3488143.8526281044
169,58738.41912658998
206,271611.73656886193
243,17990.35179714245
354,0.0
515,0.0
554,33707940.06967298
2,1, 1,12, 0,24, 0.00,60.00,Sunday
9,-14.428912969801702
End of Data
 Number of Records Written=         312
