Program Version,EnergyPlus, Version 9.6.0-f420c06a69, YMD=2024.05.14 12:32
1,5,Environment Title[],Latitude[deg],Longitude[deg],Time Zone[],Elevation[m]
2,8,Day of Simulation[],Month[],Day of Month[],DST Indicator[1=yes 0=no],Hour[],StartMinute[],EndMinute[],DayType
3,5,Cumulative Day of Simulation[],Month[],Day of Month[],DST Indicator[1=yes 0=no],DayType  ! When Daily Meters Requested
4,2,Cumulative Days of Simulation[],Month[]  ! When Monthly Meters Requested
5,1,Cumulative Days of Simulation[] ! When Run Period Meters Requested
6,1,Calendar Year of Simulation[] ! When Annual Meters Requested
11,1,Electricity:Facility [J] !TimeStep
779,1,InteriorEquipment:Electricity [J] !TimeStep
95,1,General:InteriorLights:Electricity [J] !TimeStep
815,1,dishwasher:InteriorEquipment:Electricity [J] !TimeStep
852,1,refrigerator:InteriorEquipment:Electricity [J] !TimeStep
889,1,clotheswasher:InteriorEquipment:Electricity [J] !TimeStep
1000,1,television:InteriorEquipment:Electricity [J] !TimeStep
5711,1,Heating:Electricity [J] !TimeStep
3133,1,Cooling:Electricity [J] !TimeStep
End of Data Dictionary
1,ANNUAL,  46.78, -71.29,  -5.00,  91.40
2,1, 1,12, 0, 1, 0.00,60.00,Sunday
11,96103316.2226335
95,913962.7514959001
779,25836502.599204574
815,438473.423252895
852,4720424.663127804
889,149180.07309967247
1000,0.0
3133,0.0
5711,59115258.10567239
2,1, 1,12, 0, 2, 0.00,60.00,Sunday
11,105247311.34468368
95,913962.7514959001
779,23433657.347876005
815,194813.59912604262
852,4618322.922426349
889,119312.11413860306
1000,0.0
3133,0.0
5711,70156355.80606712
2,1, 1,12, 0, 3, 0.00,60.00,Sunday
11,109455496.65077871
95,913962.7514959001
779,22429740.698760387
815,145967.37412523094
852,4517408.4112679325
889,59576.19621646439
1000,0.0
3133,0.0
5711,75138822.15974031
2,1, 1,12, 0, 4, 0.00,60.00,Sunday
11,115420902.6663958
95,913962.7514959001
779,21729431.235979646
815,97406.7995630209
852,4383251.47290439
889,59576.19621646439
1000,0.0
3133,0.0
5711,81512116.4432685
2,1, 1,12, 0, 5, 0.00,60.00,Sunday
11,120225651.32783407
95,2741888.254487699
779,21691689.615990315
815,97406.7995630209
852,4315579.388951098
889,119312.11413860306
1000,0.0
3133,0.0
5711,84394006.47132535
2,1, 1,12, 0, 6, 0.00,60.00,Sunday
11,124533814.60057585
95,5712267.196849375
779,24393151.97135015
815,292220.39868906356
852,4315579.388951098
889,179048.03206074148
1000,0.0
3133,0.0
5711,83090180.11063844
2,1, 1,12, 0, 7, 0.00,60.00,Sunday
11,206194857.7660024
95,6397739.2604713
779,30469896.092068538
815,584726.447816728
852,4484165.9840628095
889,358096.06412148295
1000,0.0
3133,0.0
5711,129842278.4209583
2,1, 1,12, 0, 8, 0.00,60.00,Sunday
11,164477518.48960185
95,5712267.196849375
779,36530096.29223999
815,877232.4969443938
852,4720424.663127804
889,776087.7678707795
1000,0.0
3133,0.0
5711,101740949.55275674
2,1, 1,12, 0, 9, 0.00,60.00,Sunday
11,126892434.32282454
95,2513397.5666137254
779,37091361.89418331
815,1657343.844764368
852,4821339.174286224
889,1164211.5126590051
1000,0.0
3133,0.0
5711,80588894.6581552
2,1, 1,12, 0,10, 0.00,60.00,Sunday
11,213429040.9313023
95,1713680.159054812
779,37806136.01356445
815,1852157.4438904074
852,4889011.258239515
889,1373287.2253864906
1000,0.0
3133,0.0
5711,134586411.72972682
2,1, 1,12, 0,11, 0.00,60.00,Sunday
11,199321771.76238152
95,1713680.159054812
779,38631885.27524645
815,1608497.6197635545
852,4720424.663127804
889,1343419.2664254215
1000,0.0
3133,0.0
5711,123017521.88266864
2,1, 1,12, 0,12, 0.00,60.00,Sunday
11,127332217.57303917
95,1713680.159054812
779,39324937.046586715
815,1364837.795636699
852,4720424.663127804
889,1194079.4716200747
1000,0.0
3133,0.0
5711,79646090.52247776
2,1, 1,12, 0,13, 0.00,60.00,Sunday
11,126022393.38610408
95,1713680.159054812
779,38594952.87661496
815,1169738.5460720598
852,4955496.112649762
889,1074607.6357757982
1000,0.0
3133,0.0
5711,79092449.87684199
2,1, 1,12, 0,14, 0.00,60.00,Sunday
11,207895792.05572787
95,1713680.159054812
779,37267631.61147033
815,1315991.5706358887
852,4955496.112649762
889,955295.5216371961
1000,0.0
3133,0.0
5711,129755363.00586602
2,1, 1,12, 0,15, 0.00,60.00,Sunday
11,160519925.05010405
95,1713680.159054812
779,36617461.96882949
815,1072331.7465090365
852,4889011.258239515
889,835823.6857929175
1000,0.0
3133,0.0
5711,100283382.42696631
2,1, 1,12, 0,16, 0.00,60.00,Sunday
11,126906429.05096905
95,2970378.9423616747
779,38225869.85629992
815,1023485.5215082268
852,4955496.112649762
889,776087.7678707795
1000,0.0
3133,0.0
5711,79087888.9448162
2,1, 1,12, 0,17, 0.00,60.00,Sunday
11,137683879.44663662
95,6397739.2604713
779,44795449.52530815
815,1072331.7465090365
852,5226184.44846293
889,805955.7268318479
1000,0.0
3133,0.0
5711,79832356.22248909
2,1, 1,12, 0,18, 0.00,60.00,Sunday
11,222901963.72001803
95,8911136.827085022
779,55269617.26711448
815,1413398.3701989125
852,5731944.233798051
889,776087.7678707795
1000,0.0
3133,0.0
5711,119888483.42466535
2,1, 1,12, 0,19, 0.00,60.00,Sunday
11,186382502.3296093
95,11995761.113383692
779,55399498.511634886
815,2486015.7671465483
852,5900530.828909755
889,776087.7678707795
1000,0.0
3133,0.0
5711,90467926.6831849
2,1, 1,12, 0,20, 0.00,60.00,Sunday
11,143231093.95353183
95,13294003.658122186
779,51663709.24382042
815,3168434.664964901
852,5731944.233798051
889,776087.7678707795
1000,0.0
3133,0.0
5711,67650321.1447697
2,1, 1,12, 0,21, 0.00,60.00,Sunday
11,140507529.11968488
95,13294003.658122186
779,49934365.634654075
815,2583422.566709569
852,5563357.63868634
889,776087.7678707795
1000,0.0
3133,0.0
5711,66698729.39589086
2,1, 1,12, 0,22, 0.00,60.00,Sunday
11,222552472.36781478
95,10053590.266454902
779,47741914.334141746
815,1901003.6688912208
852,5461255.897984883
889,746219.8089097101
1000,0.0
3133,0.0
5711,121561114.75181329
2,1, 1,12, 0,23, 0.00,60.00,Sunday
11,170295810.79582053
95,5598021.852912389
779,40294035.26445979
815,1267145.345635079
852,5226184.44846293
889,507435.85892682965
1000,0.0
3133,0.0
5711,97382507.631305
2,1, 1,12, 0,24, 0.00,60.00,Sunday
11,127183499.26819374
95,2284906.8787397505
779,32708042.448952936
815,877232.4969443938
852,4889011.258239515
889,268651.90894395043
1000,0.0
3133,0.0
5711,80949524.08863947
End of Data
 Number of Records Written=         216
