Program Version,EnergyPlus, Version 9.6.0-f420c06a69, YMD=2024.05.14 12:31
1,5,Environment Title[],Latitude[deg],Longitude[deg],Time Zone[],Elevation[m]
2,8,Day of Simulation[],Month[],Day of Month[],DST Indicator[1=yes 0=no],Hour[],StartMinute[],EndMinute[],DayType
3,5,Cumulative Day of Simulation[],Month[],Day of Month[],DST Indicator[1=yes 0=no],DayType  ! When Daily Meters Requested
4,2,Cumulative Days of Simulation[],Month[]  ! When Monthly Meters Requested
5,1,Cumulative Days of Simulation[] ! When Run Period Meters Requested
6,1,Calendar Year of Simulation[] ! When Annual Meters Requested
11,1,Electricity:Facility [J] !TimeStep
133,1,InteriorEquipment:Electricity [J] !TimeStep
95,1,General:InteriorLights:Electricity [J] !TimeStep
169,1,dishwasher:InteriorEquipment:Electricity [J] !TimeStep
206,1,refrigerator:InteriorEquipment:Electricity [J] !TimeStep
243,1,clotheswasher:InteriorEquipment:Electricity [J] !TimeStep
354,1,television:InteriorEquipment:Electricity [J] !TimeStep
1195,1,Heating:Electricity [J] !TimeStep
515,1,Cooling:Electricity [J] !TimeStep
12,1,Electricity:Facility [J] !Hourly
End of Data Dictionary
1,ANNUAL,  46.78, -71.29,  -5.00,  91.40
2,1, 1,12, 0, 1, 0.00,60.00,Sunday
11,18188575.396063745
95,83652.61855354601
133,2423710.5078269197
169,29359.64616420171
206,262245.8146182114
243,9989.88619413263
354,0.0
515,0.0
1195,14779793.51171678
2,1, 1,12, 0, 1, 0.00,60.00,Sunday
12,18188575.396063745
2,1, 1,12, 0, 2, 0.00,60.00,Sunday
11,21387676.515073244
95,83652.61855354601
133,2204854.2592976703
169,13044.48122735215
206,256573.49569035263
243,7989.769793380162
354,0.0
515,0.0
1195,18078544.867500763
2,1, 1,12, 0, 2, 0.00,60.00,Sunday
12,21387676.515073244
2,1, 1,12, 0, 3, 0.00,60.00,Sunday
11,22050461.18488548
95,83652.61855354601
133,2130968.725359404
169,9773.797517854753
206,250967.13395932948
243,3989.536991875235
354,0.0
515,0.0
1195,18789522.674440913
2,1, 1,12, 0, 3, 0.00,60.00,Sunday
12,22050461.18488548
2,1, 1,12, 0, 4, 0.00,60.00,Sunday
11,23772747.318570845
95,83652.61855354601
133,2076109.0398326167
169,6522.240613676075
206,243513.97071691064
243,3989.536991875235
354,0.0
515,0.0
1195,20504688.064222645
2,1, 1,12, 0, 4, 0.00,60.00,Sunday
12,23772747.318570845
2,1, 1,12, 0, 5, 0.00,60.00,Sunday
11,24665729.39226997
95,250957.855660638
133,2048824.1082944702
169,6522.240613676075
206,239754.41049728324
243,7989.769793380162
354,0.0
515,0.0
1195,21227967.24600574
2,1, 1,12, 0, 5, 0.00,60.00,Sunday
12,24665729.39226997
2,1, 1,12, 0, 6, 0.00,60.00,Sunday
11,24180818.63095078
95,522828.86595966254
133,2304415.351730611
169,19566.721841028222
206,239754.41049728324
243,11990.002594885089
354,0.0
515,0.0
1195,20245341.39862225
2,1, 1,12, 0, 6, 0.00,60.00,Sunday
12,24180818.63095078
2,1, 1,12, 0, 7, 0.00,60.00,Sunday
11,29080019.037388247
95,585568.329874822
133,2820625.958515412
169,39152.570487375255
206,249120.3324479338
243,23980.005189770178
354,0.0
515,0.0
1195,22948520.477355942
2,1, 1,12, 0, 7, 0.00,60.00,Sunday
12,29080019.037388247
2,1, 1,12, 0, 8, 0.00,60.00,Sunday
11,30092761.498597726
95,522828.86595966254
133,3274713.361693889
169,58738.41913372186
206,262245.8146182114
243,51970.93899067497
354,0.0
515,0.0
1195,23523744.575346686
2,1, 1,12, 0, 8, 0.00,60.00,Sunday
12,30092761.498597726
2,1, 1,12, 0, 9, 0.00,60.00,Sunday
11,25806038.7341525
95,230044.7010222515
133,3173562.0282091764
169,110973.72445908665
206,267852.1763492346
243,77961.75639082717
354,0.0
515,0.0
1195,20617067.293546338
2,1, 1,12, 0, 9, 0.00,60.00,Sunday
12,25806038.7341525
2,1, 1,12, 0,10, 0.00,60.00,Sunday
11,25886162.866961397
95,156848.65978789877
133,3108320.6491898345
169,124018.20568643884
206,271611.73656886193
243,91962.57119609449
354,0.0
515,0.0
1195,20824639.79993591
2,1, 1,12, 0,10, 0.00,60.00,Sunday
12,25886162.866961397
2,1, 1,12, 0,11, 0.00,60.00,Sunday
11,27785552.210215714
95,156848.65978789877
133,3180213.4409684096
169,107703.04074958932
206,262245.8146182114
243,89962.45479534201
354,0.0
515,0.0
1195,21769637.36146217
2,1, 1,12, 0,11, 0.00,60.00,Sunday
12,27785552.210215714
2,1, 1,12, 0,12, 0.00,60.00,Sunday
11,25580050.301236734
95,156848.65978789877
133,3226508.9837373705
169,91387.8758127398
206,262245.8146182114
243,79961.87279157966
354,0.0
515,0.0
1195,20264383.816963643
2,1, 1,12, 0,12, 0.00,60.00,Sunday
12,25580050.301236734
2,1, 1,12, 0,13, 0.00,60.00,Sunday
11,22398394.705364045
95,156848.65978789877
133,3164107.7708933013
169,78324.26778006893
206,275305.33959165344
243,71961.40718856991
354,0.0
515,0.0
1195,18206317.843506515
2,1, 1,12, 0,13, 0.00,60.00,Sunday
12,22398394.705364045
2,1, 1,12, 0,14, 0.00,60.00,Sunday
11,25424874.784917854
95,156848.65978789877
133,3097944.404917636
169,88117.19210324223
206,275305.33959165344
243,63971.63739518969
354,0.0
515,0.0
1195,20396817.0271971
2,1, 1,12, 0,14, 0.00,60.00,Sunday
12,25424874.784917854
2,1, 1,12, 0,15, 0.00,60.00,Sunday
11,27297984.900125667
95,156848.65978789877
133,3092850.3958552633
169,71802.02716639295
206,271611.73656886193
243,55971.17179217984
354,0.0
515,0.0
1195,21385101.70897832
2,1, 1,12, 0,15, 0.00,60.00,Sunday
12,27297984.900125667
2,1, 1,12, 0,16, 0.00,60.00,Sunday
11,24947610.366647325
95,271871.0102990245
133,3238555.609175064
169,68531.3434568954
206,275305.33959165344
243,51970.93899067497
354,0.0
515,0.0
1195,19706604.633294377
2,1, 1,12, 0,16, 0.00,60.00,Sunday
12,24947610.366647325
2,1, 1,12, 0,17, 0.00,60.00,Sunday
11,24115744.623667605
95,585568.329874822
133,3809769.245652374
169,71802.02716639295
206,290343.58047016273
243,53971.055391427355
354,0.0
515,0.0
1195,18818093.316314347
2,1, 1,12, 0,17, 0.00,60.00,Sunday
12,24115744.623667605
2,1, 1,12, 0,18, 0.00,60.00,Sunday
11,24622904.097238567
95,815613.0308970734
133,4691880.402825922
169,94639.43271691845
206,318441.34632211406
243,51970.93899067497
354,0.0
515,0.0
1195,18031101.603030484
2,1, 1,12, 0,18, 0.00,60.00,Sunday
12,24622904.097238567
2,1, 1,12, 0,19, 0.00,60.00,Sunday
11,28794066.72816409
95,1097940.6185152913
133,4790626.610950493
169,166460.58668863008
206,327807.2682727643
243,51970.93899067497
354,0.0
515,0.0
1195,20126838.31928965
2,1, 1,12, 0,19, 0.00,60.00,Sunday
12,28794066.72816409
2,1, 1,12, 0,20, 0.00,60.00,Sunday
11,29614192.766923897
95,1216765.360778851
133,4580943.455350675
169,212154.524595
206,318441.34632211406
243,51970.93899067497
354,0.0
515,0.0
1195,20975070.71366978
2,1, 1,12, 0,20, 0.00,60.00,Sunday
12,29614192.766923897
2,1, 1,12, 0,21, 0.00,60.00,Sunday
11,25447044.709827404
95,1216765.360778851
133,4508531.550197068
169,172982.82730230608
206,309075.4243714635
243,51970.93899067497
354,0.0
515,0.0
1195,18262933.93256341
2,1, 1,12, 0,21, 0.00,60.00,Sunday
12,25447044.709827404
2,1, 1,12, 0,22, 0.00,60.00,Sunday
11,25237617.465539493
95,920178.804089006
133,4334308.999588086
169,127288.88939593617
206,303403.1054436047
243,49970.82258992248
354,0.0
515,0.0
1195,18914565.56522203
2,1, 1,12, 0,22, 0.00,60.00,Sunday
12,25237617.465539493
2,1, 1,12, 0,23, 0.00,60.00,Sunday
11,29892098.488675408
95,512372.28864046925
133,3677044.413770988
169,84846.50839374492
206,290343.58047016273
243,33980.58719353241
354,0.0
515,0.0
1195,22837307.28522596
2,1, 1,12, 0,23, 0.00,60.00,Sunday
12,29892098.488675408
2,1, 1,12, 0,24, 0.00,60.00,Sunday
11,26709826.017514437
95,209131.546383865
133,3037549.1348166782
169,58738.41913372186
206,271611.73656886193
243,17990.35179714245
354,0.0
515,0.0
1195,21636610.657315295
2,1, 1,12, 0,24, 0.00,60.00,Sunday
12,26709826.017514437
End of Data
 Number of Records Written=         240
