Program Version,EnergyPlus, Version 9.6.0-f420c06a69, YMD=2024.05.14 12:32
1,5,Environment Title[],Latitude[deg],Longitude[deg],Time Zone[],Elevation[m]
2,8,Day of Simulation[],Month[],Day of Month[],DST Indicator[1=yes 0=no],Hour[],StartMinute[],EndMinute[],DayType
3,5,Cumulative Day of Simulation[],Month[],Day of Month[],DST Indicator[1=yes 0=no],DayType  ! When Daily Meters Requested
4,2,Cumulative Days of Simulation[],Month[]  ! When Monthly Meters Requested
5,1,Cumulative Days of Simulation[] ! When Run Period Meters Requested
6,1,Calendar Year of Simulation[] ! When Annual Meters Requested
11,1,Electricity:Facility [J] !TimeStep
779,1,InteriorEquipment:Electricity [J] !TimeStep
95,1,General:InteriorLights:Electricity [J] !TimeStep
815,1,dishwasher:InteriorEquipment:Electricity [J] !TimeStep
852,1,refrigerator:InteriorEquipment:Electricity [J] !TimeStep
889,1,clotheswasher:InteriorEquipment:Electricity [J] !TimeStep
1000,1,television:InteriorEquipment:Electricity [J] !TimeStep
5649,1,Heating:Electricity [J] !TimeStep
3133,1,Cooling:Electricity [J] !TimeStep
End of Data Dictionary
1,ANNUAL,  46.78, -71.29,  -5.00,  91.40
2,1, 1,12, 0, 1, 0.00,60.00,Sunday
11,163653395.6189969
95,913962.7514959001
779,25836502.599204574
815,438473.423252895
852,4720424.663127804
889,149180.07309967247
1000,0.0
3133,0.0
5649,125156153.14102535
2,1, 1,12, 0, 2, 0.00,60.00,Sunday
11,166869801.88746935
95,913962.7514959001
779,23433657.347876005
815,194813.59912604262
852,4618322.922426349
889,119312.11413860306
1000,0.0
3133,0.0
5649,130513817.23895282
2,1, 1,12, 0, 3, 0.00,60.00,Sunday
11,170809211.46804792
95,913962.7514959001
779,22429740.698760387
815,145967.37412523094
852,4517408.4112679325
889,59576.19621646439
1000,0.0
3133,0.0
5649,135275831.75781453
2,1, 1,12, 0, 4, 0.00,60.00,Sunday
11,178331585.83071604
95,913962.7514959001
779,21729431.235979646
815,97406.7995630209
852,4383251.47290439
889,59576.19621646439
1000,0.0
3133,0.0
5649,143216929.55881542
2,1, 1,12, 0, 5, 0.00,60.00,Sunday
11,184656190.5026963
95,2741888.254487699
779,21691689.615990315
815,97406.7995630209
852,4315579.388951098
889,119312.11413860306
1000,0.0
3133,0.0
5649,147602350.04652172
2,1, 1,12, 0, 6, 0.00,60.00,Sunday
11,189778328.97073105
95,5712267.196849375
779,24393151.97135015
815,292220.39868906356
852,4315579.388951098
889,179048.03206074148
1000,0.0
3133,0.0
5649,147082075.01093087
2,1, 1,12, 0, 7, 0.00,60.00,Sunday
11,271720277.84344923
95,6397739.2604713
779,30469896.092068538
815,584726.447816728
852,4484165.9840628095
889,358096.06412148295
1000,0.0
3133,0.0
5649,194466813.03761992
2,1, 1,12, 0, 8, 0.00,60.00,Sunday
11,230831748.94844943
95,5712267.196849375
779,36530096.29223999
815,877232.4969443938
852,4720424.663127804
889,776087.7678707795
1000,0.0
3133,0.0
5649,166875378.3314626
2,1, 1,12, 0, 9, 0.00,60.00,Sunday
11,193307796.7876134
95,2513397.5666137254
779,37091361.89418331
815,1657343.844764368
852,4821339.174286224
889,1164211.5126590051
1000,0.0
3133,0.0
5649,145702606.40630585
2,1, 1,12, 0,10, 0.00,60.00,Sunday
11,281686888.32535666
95,1713680.159054812
779,37806136.01356445
815,1852157.4438904074
852,4889011.258239515
889,1373287.2253864906
1000,0.0
3133,0.0
5649,201893830.04895663
2,1, 1,12, 0,11, 0.00,60.00,Sunday
11,269150645.96549433
95,1713680.159054812
779,38631885.27524645
815,1608497.6197635545
852,4720424.663127804
889,1343419.2664254215
1000,0.0
3133,0.0
5649,191721069.6829966
2,1, 1,12, 0,12, 0.00,60.00,Sunday
11,198141815.1916674
95,1713680.159054812
779,39324937.046586715
815,1364837.795636699
852,4720424.663127804
889,1194079.4716200747
1000,0.0
3133,0.0
5649,149024005.20925722
2,1, 1,12, 0,13, 0.00,60.00,Sunday
11,197213619.28930175
95,1713680.159054812
779,38594952.87661496
815,1169738.5460720598
852,4955496.112649762
889,1074607.6357757982
1000,0.0
3133,0.0
5649,148835168.1419891
2,1, 1,12, 0,14, 0.00,60.00,Sunday
11,279083553.43012124
95,1713680.159054812
779,37267631.61147033
815,1315991.5706358887
852,4955496.112649762
889,955295.5216371961
1000,0.0
3133,0.0
5649,199851642.1140365
2,1, 1,12, 0,15, 0.00,60.00,Sunday
11,230923581.19446945
95,1713680.159054812
779,36617461.96882949
815,1072331.7465090365
852,4889011.258239515
889,835823.6857929175
1000,0.0
3133,0.0
5649,169449690.31565037
2,1, 1,12, 0,16, 0.00,60.00,Sunday
11,196603705.62358212
95,2970378.9423616747
779,38225869.85629992
815,1023485.5215082268
852,4955496.112649762
889,776087.7678707795
1000,0.0
3133,0.0
5649,147373229.74046907
2,1, 1,12, 0,17, 0.00,60.00,Sunday
11,206479798.04236668
95,6397739.2604713
779,44795449.52530815
815,1072331.7465090365
852,5226184.44846293
889,805955.7268318479
1000,0.0
3133,0.0
5649,147248276.87666163
2,1, 1,12, 0,18, 0.00,60.00,Sunday
11,290954266.6309321
95,8911136.827085022
779,55269617.26711448
815,1413398.3701989125
852,5731944.233798051
889,776087.7678707795
1000,0.0
3133,0.0
5649,186861862.78189516
2,1, 1,12, 0,19, 0.00,60.00,Sunday
11,253951203.43807772
95,11995761.113383692
779,55399498.511634886
815,2486015.7671465483
852,5900530.828909755
889,776087.7678707795
1000,0.0
3133,0.0
5649,156800986.59755993
2,1, 1,12, 0,20, 0.00,60.00,Sunday
11,211218576.51464102
95,13294003.658122186
779,51663709.24382042
815,3168434.664964901
852,5731944.233798051
889,776087.7678707795
1000,0.0
3133,0.0
5649,134195838.4591182
2,1, 1,12, 0,21, 0.00,60.00,Sunday
11,209534077.4943956
95,13294003.658122186
779,49934365.634654075
815,2583422.566709569
852,5563357.63868634
889,776087.7678707795
1000,0.0
3133,0.0
5649,134248128.7812477
2,1, 1,12, 0,22, 0.00,60.00,Sunday
11,293318336.9159646
95,10053590.266454902
779,47741914.334141746
815,1901003.6688912208
852,5461255.897984883
889,746219.8089097101
1000,0.0
3133,0.0
5649,191201418.84068662
2,1, 1,12, 0,23, 0.00,60.00,Sunday
11,243621261.80612394
95,5598021.852912389
779,40294035.26445979
815,1267145.345635079
852,5226184.44846293
889,507435.85892682965
1000,0.0
3133,0.0
5649,169340535.58503526
2,1, 1,12, 0,24, 0.00,60.00,Sunday
11,203574787.92108026
95,2284906.8787397505
779,32708042.448952936
815,877232.4969443938
852,4889011.258239515
889,268651.90894395043
1000,0.0
3133,0.0
5649,155766076.7950732
End of Data
 Number of Records Written=         216
