Program Version,EnergyPlus, Version 9.6.0-f420c06a69, YMD=2024.05.14 12:31
1,5,Environment Title[],Latitude[deg],Longitude[deg],Time Zone[],Elevation[m]
2,8,Day of Simulation[],Month[],Day of Month[],DST Indicator[1=yes 0=no],Hour[],StartMinute[],EndMinute[],DayType
3,5,Cumulative Day of Simulation[],Month[],Day of Month[],DST Indicator[1=yes 0=no],DayType  ! When Daily Meters Requested
4,2,Cumulative Days of Simulation[],Month[]  ! When Monthly Meters Requested
5,1,Cumulative Days of Simulation[] ! When Run Period Meters Requested
6,1,Calendar Year of Simulation[] ! When Annual Meters Requested
11,1,Electricity:Facility [J] !TimeStep
465,1,NaturalGas:Facility [J] !TimeStep
133,1,InteriorEquipment:Electricity [J] !TimeStep
95,1,General:InteriorLights:Electricity [J] !TimeStep
169,1,dishwasher:InteriorEquipment:Electricity [J] !TimeStep
206,1,refrigerator:InteriorEquipment:Electricity [J] !TimeStep
243,1,clotheswasher:InteriorEquipment:Electricity [J] !TimeStep
280,1,gas_dryer:InteriorEquipment:Electricity [J] !TimeStep
317,1,gas_range:InteriorEquipment:Electricity [J] !TimeStep
354,1,television:InteriorEquipment:Electricity [J] !TimeStep
513,1,InteriorEquipment:NaturalGas [J] !TimeStep
1297,1,Heating:Electricity [J] !TimeStep
1272,1,Heating:NaturalGas [J] !TimeStep
1337,1,Cooling:Electricity [J] !TimeStep
12,1,Electricity:Facility [J] !Hourly
End of Data Dictionary
1,ANNUAL,  46.78, -71.29,  -5.00,  91.40
2,1, 1,12, 0, 1, 0.00,60.00,Sunday
11,3703143.558511271
95,83652.61855354601
133,2524530.5472392533
169,29359.646160636934
206,262245.8146182114
243,9989.88619413263
280,8525.071726859142
317,0.0
354,0.0
465,34094009.996354096
513,399191.4000475487
1272,33157967.89351555
1297,0.0
1337,0.0
2,1, 1,12, 0, 1, 0.00,60.00,Sunday
12,3703143.558511271
2,1, 1,12, 0, 2, 0.00,60.00,Sunday
11,3564827.0745153907
95,83652.61855354601
133,2321611.218745075
169,13044.481225768317
206,256573.49569035263
243,7989.769793380162
280,5115.043036115492
317,0.0
354,0.0
465,36598867.461812496
513,319125.02881530335
1272,35985766.52237135
1297,0.0
1337,0.0
2,1, 1,12, 0, 2, 0.00,60.00,Sunday
12,3564827.0745153907
2,1, 1,12, 0, 3, 0.00,60.00,Sunday
11,3548518.52136593
95,83652.61855354601
133,2283389.6400247477
169,9773.797516668043
206,250967.13395932948
243,3989.536991875235
280,3410.0286907436634
317,0.0
354,0.0
465,37368401.49424399
513,236979.82523833396
1272,36944944.46793395
1297,0.0
1337,0.0
2,1, 1,12, 0, 3, 0.00,60.00,Sunday
12,3548518.52136593
2,1, 1,12, 0, 4, 0.00,60.00,Sunday
11,3571340.2071650913
95,83652.61855354601
133,2242612.762173181
169,6522.2406128841585
206,243513.97071691064
243,3989.536991875235
280,1705.0143453718283
317,0.0
354,0.0
465,40137578.988218844
513,200532.11185259442
1272,39728783.67014533
1297,0.0
1337,0.0
2,1, 1,12, 0, 4, 0.00,60.00,Sunday
12,3571340.2071650913
2,1, 1,12, 0, 5, 0.00,60.00,Sunday
11,3702630.0404110597
95,250957.855660638
133,2169503.715627116
169,6522.2406128841585
206,239754.41049728324
243,7989.769793380162
280,3410.0286907436634
317,0.0
354,0.0
465,41896601.76529404
513,276719.3665492255
1272,41197247.556250244
1297,0.0
1337,0.0
2,1, 1,12, 0, 5, 0.00,60.00,Sunday
12,3702630.0404110597
2,1, 1,12, 0, 6, 0.00,60.00,Sunday
11,4200087.972716421
95,522828.86595966254
133,2409871.751499703
169,19566.721838652476
206,239754.41049728324
243,11990.002594885089
280,5115.043036115492
317,0.0
354,0.0
465,41880813.73646701
513,370686.249027145
1272,40298046.80568923
1297,0.0
1337,0.0
2,1, 1,12, 0, 6, 0.00,60.00,Sunday
12,4200087.972716421
2,1, 1,12, 0, 7, 0.00,60.00,Sunday
11,4464768.287397904
95,585568.329874822
133,2790879.5844359784
169,39152.57048262144
206,249120.3324479338
243,23980.005189770178
280,13640.114762974627
317,0.0
354,0.0
465,42690225.85862672
513,748178.6297525275
1272,39215837.906488106
1297,0.0
1337,0.0
2,1, 1,12, 0, 7, 0.00,60.00,Sunday
12,4464768.287397904
2,1, 1,12, 0, 8, 0.00,60.00,Sunday
11,4652340.702365032
95,522828.86595966254
133,3019468.305834065
169,58738.41912658998
206,262245.8146182114
243,51970.93899067497
280,27280.229525949253
317,0.0
354,0.0
465,44866879.85491051
513,1265026.86112407
1272,40224905.20675747
1297,0.0
1337,0.0
2,1, 1,12, 0, 8, 0.00,60.00,Sunday
12,4652340.702365032
2,1, 1,12, 0, 9, 0.00,60.00,Sunday
11,4015155.6591021437
95,230044.7010222515
133,2712798.4135154476
169,110973.72444561248
206,267852.1763492346
243,77961.75639082717
280,41600.62779036017
317,0.0
354,0.0
465,43980833.24878241
513,1578182.5793280303
1272,38844944.038316526
1297,0.0
1337,0.0
2,1, 1,12, 0, 9, 0.00,60.00,Sunday
12,4015155.6591021437
2,1, 1,12, 0,10, 0.00,60.00,Sunday
11,3673098.3360673506
95,156848.65978789877
133,2430885.371659916
169,124018.20567138083
206,271611.73656886193
243,91962.57119609449
280,58650.77124407846
317,0.0
354,0.0
465,44791481.10091388
513,1933295.3493115837
1272,39484146.58331136
1297,0.0
1337,0.0
2,1, 1,12, 0,10, 0.00,60.00,Sunday
12,3673098.3360673506
2,1, 1,12, 0,11, 0.00,60.00,Sunday
11,3680471.9660830293
95,156848.65978789877
133,2456052.9016004917
169,107703.04073651227
206,262245.8146182114
243,89962.45479534201
280,67175.8429709376
317,0.0
354,0.0
465,43717404.16244817
513,2036126.6366556163
1272,38705271.19167209
1297,0.0
1337,0.0
2,1, 1,12, 0,11, 0.00,60.00,Sunday
12,3680471.9660830293
2,1, 1,12, 0,12, 0.00,60.00,Sunday
11,3663856.719359421
95,156848.65978789877
133,2433057.8820045
169,91387.87580164369
206,262245.8146182114
243,79961.87279157966
280,69905.58816024504
317,0.0
354,0.0
465,43718917.207792245
513,2183609.7041971404
1272,38984526.8981513
1297,0.0
1337,0.0
2,1, 1,12, 0,12, 0.00,60.00,Sunday
12,3663856.719359421
2,1, 1,12, 0,13, 0.00,60.00,Sunday
11,3611576.4085161723
95,156848.65978789877
133,2386409.541030472
169,78324.26777055899
206,275305.33959165344
243,71961.40718856991
280,63765.81428019395
317,0.0
354,0.0
465,43104742.77118776
513,2148401.4294528635
1272,38738004.05852061
1297,0.0
1337,0.0
2,1, 1,12, 0,13, 0.00,60.00,Sunday
12,3611576.4085161723
2,1, 1,12, 0,14, 0.00,60.00,Sunday
11,3684645.7415370382
95,156848.65978789877
133,2448016.388041509
169,88117.19209254326
206,275305.33959165344
243,63971.63739518969
280,57970.48774264223
317,0.0
354,0.0
465,43130051.66981875
513,1896477.9350964525
1272,39239740.51414567
1297,0.0
1337,0.0
2,1, 1,12, 0,14, 0.00,60.00,Sunday
12,3684645.7415370382
2,1, 1,12, 0,15, 0.00,60.00,Sunday
11,3742115.0413170974
95,156848.65978789877
133,2524725.490616589
169,71802.02715767492
206,271611.73656886193
243,55971.17179217984
280,52175.161205090524
317,0.0
354,0.0
465,41953430.15416722
513,1757546.867703995
1272,38397574.996733375
1297,0.0
1337,0.0
2,1, 1,12, 0,15, 0.00,60.00,Sunday
12,3742115.0413170974
2,1, 1,12, 0,16, 0.00,60.00,Sunday
11,3965770.626035214
95,271871.0102990245
133,2633659.9518394377
169,68531.3434485745
206,275305.33959165344
243,51970.93899067497
280,49445.41601578309
317,0.0
354,0.0
465,41856930.24875698
513,1874248.8595692539
1272,38277689.18069193
1297,0.0
1337,0.0
2,1, 1,12, 0,16, 0.00,60.00,Sunday
12,3965770.626035214
2,1, 1,12, 0,17, 0.00,60.00,Sunday
11,4712840.154673282
95,585568.329874822
133,3052358.89628899
169,71802.02715767492
206,290343.58047016273
243,53971.055391427355
280,47740.40167041126
317,0.0
354,0.0
465,42902729.21080707
513,2322975.921478171
1272,38628966.63653818
1297,0.0
1337,0.0
2,1, 1,12, 0,17, 0.00,60.00,Sunday
12,4712840.154673282
2,1, 1,12, 0,18, 0.00,60.00,Sunday
11,5502691.788365477
95,815613.0308970734
133,3656383.4267305257
169,94639.43270542756
206,318441.34632211406
243,51970.93899067497
280,46715.67082647567
317,0.0
354,0.0
465,41907453.35189093
513,3088933.389152113
1272,36480070.9616553
1297,0.0
1337,0.0
2,1, 1,12, 0,18, 0.00,60.00,Sunday
12,5502691.788365477
2,1, 1,12, 0,19, 0.00,60.00,Sunday
11,6266821.298133914
95,1097940.6185152913
133,4004673.0667172875
169,166460.58666841884
206,327807.2682727643
243,51970.93899067497
280,44330.37297966761
317,0.0
354,0.0
465,40634699.32881442
513,2624965.7872353313
1272,35248155.99303174
1297,0.0
1337,0.0
2,1, 1,12, 0,19, 0.00,60.00,Sunday
12,6266821.298133914
2,1, 1,12, 0,20, 0.00,60.00,Sunday
11,6570643.740586091
95,1216765.360778851
133,4150243.479685992
169,212154.52456924066
206,318441.34632211406
243,51970.93899067497
280,43650.08947823131
317,0.0
354,0.0
465,41607199.956445605
513,1882795.5296278403
1272,36863741.2084543
1297,0.0
1337,0.0
2,1, 1,12, 0,20, 0.00,60.00,Sunday
12,6570643.740586091
2,1, 1,12, 0,21, 0.00,60.00,Sunday
11,6650711.126440375
95,1216765.360778851
133,4224217.7688835785
169,172982.8272813029
206,309075.4243714635
243,51970.93899067497
280,45010.656481103826
317,0.0
354,0.0
465,41358113.557635285
513,1596336.5856489816
1272,37130448.51066533
1297,0.0
1337,0.0
2,1, 1,12, 0,21, 0.00,60.00,Sunday
12,6650711.126440375
2,1, 1,12, 0,22, 0.00,60.00,Sunday
11,6265724.625654524
95,920178.804089006
133,4087454.979919541
169,127288.88938048104
206,303403.1054436047
243,49970.82258992248
280,46715.67082647567
317,0.0
354,0.0
465,43317213.6083177
513,1488115.634091579
1272,39522517.6869996
1297,0.0
1337,0.0
2,1, 1,12, 0,22, 0.00,60.00,Sunday
12,6265724.625654524
2,1, 1,12, 0,23, 0.00,60.00,Sunday
11,5323487.3985578455
95,512372.28864046925
133,3527470.9569711694
169,84846.50838344306
206,290343.58047016273
243,33980.58719353241
280,37510.31559818029
317,0.0
354,0.0
465,43893046.09303027
513,1152143.2788736224
1272,41019340.13366478
1297,0.0
1337,0.0
2,1, 1,12, 0,23, 0.00,60.00,Sunday
12,5323487.3985578455
2,1, 1,12, 0,24, 0.00,60.00,Sunday
11,4580747.7401693845
95,209131.546383865
133,3045949.834236347
169,58738.41912658998
206,271611.73656886193
243,17990.35179714245
280,20460.17214446194
317,0.0
354,0.0
465,44962897.48363753
513,716125.7237120039
1272,43140039.36114174
1297,0.0
1337,0.0
2,1, 1,12, 0,24, 0.00,60.00,Sunday
12,4580747.7401693845
End of Data
 Number of Records Written=         360
