Program Version,EnergyPlus, Version 9.6.0-f420c06a69, YMD=2024.05.14 12:32
1,5,Environment Title[],Latitude[deg],Longitude[deg],Time Zone[],Elevation[m]
2,8,Day of Simulation[],Month[],Day of Month[],DST Indicator[1=yes 0=no],Hour[],StartMinute[],EndMinute[],DayType
3,5,Cumulative Day of Simulation[],Month[],Day of Month[],DST Indicator[1=yes 0=no],DayType  ! When Daily Meters Requested
4,2,Cumulative Days of Simulation[],Month[]  ! When Monthly Meters Requested
5,1,Cumulative Days of Simulation[] ! When Run Period Meters Requested
6,1,Calendar Year of Simulation[] ! When Annual Meters Requested
11,1,Electricity:Facility [J] !TimeStep
133,1,InteriorEquipment:Electricity [J] !TimeStep
95,1,General:InteriorLights:Electricity [J] !TimeStep
169,1,dishwasher:InteriorEquipment:Electricity [J] !TimeStep
206,1,refrigerator:InteriorEquipment:Electricity [J] !TimeStep
243,1,clotheswasher:InteriorEquipment:Electricity [J] !TimeStep
354,1,television:InteriorEquipment:Electricity [J] !TimeStep
1244,1,Heating:Electricity [J] !TimeStep
515,1,Cooling:Electricity [J] !TimeStep
End of Data Dictionary
1,ANNUAL,  46.78, -71.29,  -5.00,  91.40
2,1, 1,12, 0, 1, 0.00,60.00,Sunday
11,3408781.8839066
95,83652.61855354601
133,2423710.5078233546
169,29359.646160636934
206,262245.8146182114
243,9989.88619413263
354,0.0
515,0.0
1244,0.0
2,1, 1,12, 0, 2, 0.00,60.00,Sunday
11,3309131.6476383875
95,83652.61855354601
133,2204854.2592960866
169,13044.481225768317
206,256573.49569035263
243,7989.769793380162
354,0.0
515,0.0
1244,0.0
2,1, 1,12, 0, 3, 0.00,60.00,Sunday
11,3260938.5104490644
95,83652.61855354601
133,2130968.725358217
169,9773.797516668043
206,250967.13395932948
243,3989.536991875235
354,0.0
515,0.0
1244,0.0
2,1, 1,12, 0, 4, 0.00,60.00,Sunday
11,3268059.2543464545
95,83652.61855354601
133,2076109.0398318248
169,6522.2406128841585
206,243513.97071691064
243,3989.536991875235
354,0.0
515,0.0
1244,0.0
2,1, 1,12, 0, 5, 0.00,60.00,Sunday
11,3437762.146262318
95,250957.855660638
133,2048824.1082936786
169,6522.2406128841585
206,239754.41049728324
243,7989.769793380162
354,0.0
515,0.0
1244,0.0
2,1, 1,12, 0, 6, 0.00,60.00,Sunday
11,3935477.2323249583
95,522828.86595966254
133,2304415.351728236
169,19566.721838652476
206,239754.41049728324
243,11990.002594885089
354,0.0
515,0.0
1244,0.0
2,1, 1,12, 0, 7, 0.00,60.00,Sunday
11,6131498.560026254
95,585568.329874822
133,2820625.9585106582
169,39152.57048262144
206,249120.3324479338
243,23980.005189770178
354,0.0
515,0.0
1244,0.0
2,1, 1,12, 0, 8, 0.00,60.00,Sunday
11,6569016.923242581
95,522828.86595966254
133,3274713.361686757
169,58738.41912658998
206,262245.8146182114
243,51970.93899067497
354,0.0
515,0.0
1244,0.0
2,1, 1,12, 0, 9, 0.00,60.00,Sunday
11,5188971.440596618
95,230044.7010222515
133,3173562.028195702
169,110973.72444561248
206,267852.1763492346
243,77961.75639082717
354,0.0
515,0.0
1244,0.0
2,1, 1,12, 0,10, 0.00,60.00,Sunday
11,5061523.0670095915
95,156848.65978789877
133,3108320.649174777
169,124018.20567138083
206,271611.73656886193
243,91962.57119609449
354,0.0
515,0.0
1244,0.0
2,1, 1,12, 0,11, 0.00,60.00,Sunday
11,6015914.848739802
95,156848.65978789877
133,3180213.4409553325
169,107703.04073651227
206,262245.8146182114
243,89962.45479534201
354,0.0
515,0.0
1244,0.0
2,1, 1,12, 0,12, 0.00,60.00,Sunday
11,5315666.484261755
95,156848.65978789877
133,3226508.9837262738
169,91387.87580164369
206,262245.8146182114
243,79961.87279157966
354,0.0
515,0.0
1244,0.0
2,1, 1,12, 0,13, 0.00,60.00,Sunday
11,4192076.8618474063
95,156848.65978789877
133,3164107.770883791
169,78324.26777055899
206,275305.33959165344
243,71961.40718856991
354,0.0
515,0.0
1244,0.0
2,1, 1,12, 0,14, 0.00,60.00,Sunday
11,5028057.757709628
95,156848.65978789877
133,3097944.404906937
169,88117.19209254326
206,275305.33959165344
243,63971.63739518969
354,0.0
515,0.0
1244,0.0
2,1, 1,12, 0,15, 0.00,60.00,Sunday
11,5912883.191138483
95,156848.65978789877
133,3092850.3958465457
169,71802.02715767492
206,271611.73656886193
243,55971.17179217984
354,0.0
515,0.0
1244,0.0
2,1, 1,12, 0,16, 0.00,60.00,Sunday
11,5241005.733344323
95,271871.0102990245
133,3238555.609166743
169,68531.3434485745
206,275305.33959165344
243,51970.93899067497
354,0.0
515,0.0
1244,0.0
2,1, 1,12, 0,17, 0.00,60.00,Sunday
11,5297651.307344271
95,585568.329874822
133,3809769.245643656
169,71802.02715767492
206,290343.58047016273
243,53971.055391427355
354,0.0
515,0.0
1244,0.0
2,1, 1,12, 0,18, 0.00,60.00,Sunday
11,6591802.494196431
95,815613.0308970734
133,4691880.402814431
169,94639.43270542756
206,318441.34632211406
243,51970.93899067497
354,0.0
515,0.0
1244,0.0
2,1, 1,12, 0,19, 0.00,60.00,Sunday
11,8667228.4088542
95,1097940.6185152913
133,4790626.610930283
169,166460.58666841884
206,327807.2682727643
243,51970.93899067497
354,0.0
515,0.0
1244,0.0
2,1, 1,12, 0,20, 0.00,60.00,Sunday
11,8639122.05322841
95,1216765.360778851
133,4580943.455324915
169,212154.52456924066
206,318441.34632211406
243,51970.93899067497
354,0.0
515,0.0
1244,0.0
2,1, 1,12, 0,21, 0.00,60.00,Sunday
11,7184110.777243137
95,1216765.360778851
133,4508531.5501760645
169,172982.8272813029
206,309075.4243714635
243,51970.93899067497
354,0.0
515,0.0
1244,0.0
2,1, 1,12, 0,22, 0.00,60.00,Sunday
11,6323051.900302082
95,920178.804089006
133,4334308.999572631
169,127288.88938048104
206,303403.1054436047
243,49970.82258992248
354,0.0
515,0.0
1244,0.0
2,1, 1,12, 0,23, 0.00,60.00,Sunday
11,7054791.203439104
95,512372.28864046925
133,3677044.413760686
169,84846.50838344306
206,290343.58047016273
243,33980.58719353241
354,0.0
515,0.0
1244,0.0
2,1, 1,12, 0,24, 0.00,60.00,Sunday
11,5073215.36019194
95,209131.546383865
133,3037549.134809546
169,58738.41912658998
206,271611.73656886193
243,17990.35179714245
354,0.0
515,0.0
1244,0.0
End of Data
 Number of Records Written=         216
