Program Version,EnergyPlus, Version 9.6.0-f420c06a69, YMD=2024.05.14 12:32
1,5,Environment Title[],Latitude[deg],Longitude[deg],Time Zone[],Elevation[m]
2,8,Day of Simulation[],Month[],Day of Month[],DST Indicator[1=yes 0=no],Hour[],StartMinute[],EndMinute[],DayType
3,5,Cumulative Day of Simulation[],Month[],Day of Month[],DST Indicator[1=yes 0=no],DayType  ! When Daily Meters Requested
4,2,Cumulative Days of Simulation[],Month[]  ! When Monthly Meters Requested
5,1,Cumulative Days of Simulation[] ! When Run Period Meters Requested
6,1,Calendar Year of Simulation[] ! When Annual Meters Requested
11,1,Electricity:Facility [J] !TimeStep
779,1,InteriorEquipment:Electricity [J] !TimeStep
95,1,General:InteriorLights:Electricity [J] !TimeStep
815,1,dishwasher:InteriorEquipment:Electricity [J] !TimeStep
852,1,refrigerator:InteriorEquipment:Electricity [J] !TimeStep
889,1,clotheswasher:InteriorEquipment:Electricity [J] !TimeStep
1000,1,television:InteriorEquipment:Electricity [J] !TimeStep
5757,1,Heating:Electricity [J] !TimeStep
3133,1,Cooling:Electricity [J] !TimeStep
End of Data Dictionary
1,ANNUAL,  46.78, -71.29,  -5.00,  91.40
2,1, 1,12, 0, 1, 0.00,60.00,Sunday
11,179002367.13502204
95,913962.7514959001
779,25836502.599204574
815,438473.423252895
852,4720424.663127804
889,149180.07309967247
1000,0.0
3133,0.0
5757,139495570.8061496
2,1, 1,12, 0, 2, 0.00,60.00,Sunday
11,181412923.1297499
95,913962.7514959001
779,23433657.347876005
815,194813.59912604262
852,4618322.922426349
889,119312.11413860306
1000,0.0
3133,0.0
5757,144036718.44692004
2,1, 1,12, 0, 3, 0.00,60.00,Sunday
11,186178347.6733337
95,913962.7514959001
779,22429740.698760387
815,145967.37412523094
852,4517408.4112679325
889,59576.19621646439
1000,0.0
3133,0.0
5757,149575046.87444544
2,1, 1,12, 0, 4, 0.00,60.00,Sunday
11,194611061.40461397
95,913962.7514959001
779,21729431.235979646
815,97406.7995630209
852,4383251.47290439
889,59576.19621646439
1000,0.0
3133,0.0
5757,158360479.947034
2,1, 1,12, 0, 5, 0.00,60.00,Sunday
11,201527236.6002652
95,2741888.254487699
779,21691689.615990315
815,97406.7995630209
852,4315579.388951098
889,119312.11413860306
1000,0.0
3133,0.0
5757,163299153.1868695
2,1, 1,12, 0, 6, 0.00,60.00,Sunday
11,206955662.18977425
95,5712267.196849375
779,24393151.97135015
815,292220.39868906356
852,4315579.388951098
889,179048.03206074148
1000,0.0
3133,0.0
5757,163079360.5051463
2,1, 1,12, 0, 7, 0.00,60.00,Sunday
11,289035115.25909555
95,6397739.2604713
779,30469896.092068538
815,584726.447816728
852,4484165.9840628095
889,358096.06412148295
1000,0.0
3133,0.0
5757,210370702.65676385
2,1, 1,12, 0, 8, 0.00,60.00,Sunday
11,248280754.21371582
95,5712267.196849375
779,36530096.29223999
815,877232.4969443938
852,4720424.663127804
889,776087.7678707795
1000,0.0
3133,0.0
5757,183043235.97418404
2,1, 1,12, 0, 9, 0.00,60.00,Sunday
11,211267158.78410926
95,2513397.5666137254
779,37091361.89418331
815,1657343.844764368
852,4821339.174286224
889,1164211.5126590051
1000,0.0
3133,0.0
5757,162465689.75934982
2,1, 1,12, 0,10, 0.00,60.00,Sunday
11,299720581.76716995
95,1713680.159054812
779,37806136.01356445
815,1852157.4438904074
852,4889011.258239515
889,1373287.2253864906
1000,0.0
3133,0.0
5757,218463930.7834996
2,1, 1,12, 0,11, 0.00,60.00,Sunday
11,287430852.7098228
95,1713680.159054812
779,38631885.27524645
815,1608497.6197635545
852,4720424.663127804
889,1343419.2664254215
1000,0.0
3133,0.0
5757,208569396.67401984
2,1, 1,12, 0,12, 0.00,60.00,Sunday
11,216354266.38420728
95,1713680.159054812
779,39324937.046586715
815,1364837.795636699
852,4720424.663127804
889,1194079.4716200747
1000,0.0
3133,0.0
5757,166025391.18877864
2,1, 1,12, 0,13, 0.00,60.00,Sunday
11,215289955.24093217
95,1713680.159054812
779,38594952.87661496
815,1169738.5460720598
852,4955496.112649762
889,1074607.6357757982
1000,0.0
3133,0.0
5757,165707263.37948078
2,1, 1,12, 0,14, 0.00,60.00,Sunday
11,296847782.9900257
95,1713680.159054812
779,37267631.61147033
815,1315991.5706358887
852,4955496.112649762
889,955295.5216371961
1000,0.0
3133,0.0
5757,216190645.2767257
2,1, 1,12, 0,15, 0.00,60.00,Sunday
11,248672784.14965108
95,1713680.159054812
779,36617461.96882949
815,1072331.7465090365
852,4889011.258239515
889,835823.6857929175
1000,0.0
3133,0.0
5757,185848575.51988393
2,1, 1,12, 0,16, 0.00,60.00,Sunday
11,213955867.47901893
95,2970378.9423616747
779,38225869.85629992
815,1023485.5215082268
852,4955496.112649762
889,776087.7678707795
1000,0.0
3133,0.0
5757,163549510.71215928
2,1, 1,12, 0,17, 0.00,60.00,Sunday
11,223769207.65648833
95,6397739.2604713
779,44795449.52530815
815,1072331.7465090365
852,5226184.44846293
889,805955.7268318479
1000,0.0
3133,0.0
5757,163361504.51792544
2,1, 1,12, 0,18, 0.00,60.00,Sunday
11,308296674.3694282
95,8911136.827085022
779,55269617.26711448
815,1413398.3701989125
852,5731944.233798051
889,776087.7678707795
1000,0.0
3133,0.0
5757,202846229.58998123
2,1, 1,12, 0,19, 0.00,60.00,Sunday
11,271568684.7068345
95,11995761.113383692
779,55399498.511634886
815,2486015.7671465483
852,5900530.828909755
889,776087.7678707795
1000,0.0
3133,0.0
5757,173143090.162583
2,1, 1,12, 0,20, 0.00,60.00,Sunday
11,228816102.03725973
95,13294003.658122186
779,51663709.24382042
815,3168434.664964901
852,5731944.233798051
889,776087.7678707795
1000,0.0
3133,0.0
5757,150665849.41302145
2,1, 1,12, 0,21, 0.00,60.00,Sunday
11,227402795.84171936
95,13294003.658122186
779,49934365.634654075
815,2583422.566709569
852,5563357.63868634
889,776087.7678707795
1000,0.0
3133,0.0
5757,150982063.81436634
2,1, 1,12, 0,22, 0.00,60.00,Sunday
11,311503308.9541186
95,10053590.266454902
779,47741914.334141746
815,1901003.6688912208
852,5461255.897984883
889,746219.8089097101
1000,0.0
3133,0.0
5757,207972534.49940386
2,1, 1,12, 0,23, 0.00,60.00,Sunday
11,262295846.4542262
95,5598021.852912389
779,40294035.26445979
815,1267145.345635079
852,5226184.44846293
889,507435.85892682965
1000,0.0
3133,0.0
5757,186685916.77029604
2,1, 1,12, 0,24, 0.00,60.00,Sunday
11,222914230.96708798
95,2284906.8787397505
779,32708042.448952936
815,877232.4969443938
852,4889011.258239515
889,268651.90894395043
1000,0.0
3133,0.0
5757,173835691.72517553
End of Data
 Number of Records Written=         216
