Program Version,EnergyPlus, Version 9.6.0-f420c06a69, YMD=2024.05.14 12:32
1,5,Environment Title[],Latitude[deg],Longitude[deg],Time Zone[],Elevation[m]
2,8,Day of Simulation[],Month[],Day of Month[],DST Indicator[1=yes 0=no],Hour[],StartMinute[],EndMinute[],DayType
3,5,Cumulative Day of Simulation[],Month[],Day of Month[],DST Indicator[1=yes 0=no],DayType  ! When Daily Meters Requested
4,2,Cumulative Days of Simulation[],Month[]  ! When Monthly Meters Requested
5,1,Cumulative Days of Simulation[] ! When Run Period Meters Requested
6,1,Calendar Year of Simulation[] ! When Annual Meters Requested
11,1,Electricity:Facility [J] !TimeStep
133,1,InteriorEquipment:Electricity [J] !TimeStep
95,1,General:InteriorLights:Electricity [J] !TimeStep
169,1,dishwasher:InteriorEquipment:Electricity [J] !TimeStep
206,1,refrigerator:InteriorEquipment:Electricity [J] !TimeStep
243,1,clotheswasher:InteriorEquipment:Electricity [J] !TimeStep
354,1,television:InteriorEquipment:Electricity [J] !TimeStep
1182,1,Heating:Electricity [J] !TimeStep
515,1,Cooling:Electricity [J] !TimeStep
End of Data Dictionary
1,ANNUAL,  46.78, -71.29,  -5.00,  91.40
2,1, 1,12, 0, 1, 0.00,60.00,Sunday
11,4143546.1110485587
95,125478.927830319
133,2796420.9730918175
169,29359.646160636934
206,262245.8146182114
243,9989.88619413263
354,0.0
515,0.0
1182,0.0
2,1, 1,12, 0, 2, 0.00,60.00,Sunday
11,3952952.3864815044
95,125478.927830319
133,2548022.4218731336
169,13044.481225768317
206,256573.49569035263
243,7989.769793380162
354,0.0
515,0.0
1182,0.0
2,1, 1,12, 0, 3, 0.00,60.00,Sunday
11,3891048.056983087
95,125478.927830319
133,2470158.126630023
169,9773.797516668043
206,250967.13395932948
243,3989.536991875235
354,0.0
515,0.0
1182,0.0
2,1, 1,12, 0, 4, 0.00,60.00,Sunday
11,3884141.1762909777
95,125478.927830319
133,2410523.9275373416
169,6522.2406128841585
206,243513.97071691064
243,3989.536991875235
354,0.0
515,0.0
1182,0.0
2,1, 1,12, 0, 5, 0.00,60.00,Sunday
11,4123759.8217330445
95,376436.783490957
133,2370606.4288550545
169,6522.2406128841585
206,239754.41049728324
243,7989.769793380162
354,0.0
515,0.0
1182,0.0
2,1, 1,12, 0, 6, 0.00,60.00,Sunday
11,4804992.08638399
95,784243.2989394937
133,2663498.559526247
169,19566.721838652476
206,239754.41049728324
243,11990.002594885089
354,0.0
515,0.0
1182,0.0
2,1, 1,12, 0, 7, 0.00,60.00,Sunday
11,7054917.259730282
95,878352.4948122329
133,3235511.293614676
169,39152.57048262144
206,249120.3324479338
243,23980.005189770178
354,0.0
515,0.0
1182,0.0
2,1, 1,12, 0, 8, 0.00,60.00,Sunday
11,7484398.390809245
95,784243.2989394937
133,3715560.114307474
169,58738.41912658998
206,262245.8146182114
243,51970.93899067497
354,0.0
515,0.0
1182,0.0
2,1, 1,12, 0, 9, 0.00,60.00,Sunday
11,5967648.3334872825
95,345067.0515333772
133,3546272.4934641644
169,110973.72444561248
206,267852.1763492346
243,77961.75639082717
354,0.0
515,0.0
1182,0.0
2,1, 1,12, 0,10, 0.00,60.00,Sunday
11,5735365.603588942
95,235272.9896818481
133,3425527.3942351257
169,124018.20567138083
206,271611.73656886193
243,91962.57119609449
354,0.0
515,0.0
1182,0.0
2,1, 1,12, 0,11, 0.00,60.00,Sunday
11,6696537.917703971
95,235272.9896818481
133,3504880.3634630083
169,107703.04073651227
206,262245.8146182114
243,89962.45479534201
354,0.0
515,0.0
1182,0.0
2,1, 1,12, 0,12, 0.00,60.00,Sunday
11,6443016.476237783
95,235272.9896818481
133,3551275.3752665804
169,91387.87580164369
206,262245.8146182114
243,79961.87279157966
354,0.0
515,0.0
1182,0.0
2,1, 1,12, 0,13, 0.00,60.00,Sunday
11,4909173.496976017
95,235272.9896818481
133,3483403.3656293917
169,78324.26777055899
206,275305.33959165344
243,71961.40718856991
354,0.0
515,0.0
1182,0.0
2,1, 1,12, 0,14, 0.00,60.00,Sunday
11,4865503.709656379
95,235272.9896818481
133,3428281.0622745813
169,88117.19209254326
206,275305.33959165344
243,63971.63739518969
354,0.0
515,0.0
1182,0.0
2,1, 1,12, 0,15, 0.00,60.00,Sunday
11,6599775.348522999
95,235272.9896818481
133,3441787.762316192
169,71802.02715767492
206,271611.73656886193
243,55971.17179217984
354,0.0
515,0.0
1182,0.0
2,1, 1,12, 0,16, 0.00,60.00,Sunday
11,6484617.399262655
95,407806.5154485367
133,3606889.4369994397
169,68531.3434485745
206,275305.33959165344
243,51970.93899067497
354,0.0
515,0.0
1182,0.0
2,1, 1,12, 0,17, 0.00,60.00,Sunday
11,6316786.842881982
95,878352.4948122329
133,4245443.608567559
169,71802.02715767492
206,290343.58047016273
243,53971.055391427355
354,0.0
515,0.0
1182,0.0
2,1, 1,12, 0,18, 0.00,60.00,Sunday
11,8026172.713218454
95,1223419.5463456102
133,5221155.125444132
169,94639.43270542756
206,318441.34632211406
243,51970.93899067497
354,0.0
515,0.0
1182,0.0
2,1, 1,12, 0,19, 0.00,60.00,Sunday
11,10050064.212351298
95,1646910.9277729366
133,5365259.212439732
169,166460.58666841884
206,327807.2682727643
243,51970.93899067497
354,0.0
515,0.0
1182,0.0
2,1, 1,12, 0,20, 0.00,60.00,Sunday
11,9790100.064713513
95,1825148.0411682762
133,5174077.296903736
169,212154.52456924066
206,318441.34632211406
243,51970.93899067497
354,0.0
515,0.0
1182,0.0
2,1, 1,12, 0,21, 0.00,60.00,Sunday
11,8258971.479793077
95,1825148.0411682762
133,5122056.543444246
169,172982.8272813029
206,309075.4243714635
243,51970.93899067497
354,0.0
515,0.0
1182,0.0
2,1, 1,12, 0,22, 0.00,60.00,Sunday
11,8540886.117281739
95,1380268.2061335088
133,4933510.452141945
169,127288.88938048104
206,303403.1054436047
243,49970.82258992248
354,0.0
515,0.0
1182,0.0
2,1, 1,12, 0,23, 0.00,60.00,Sunday
11,8104153.166998279
95,768558.4329607037
133,4195576.480866236
169,84846.50838344306
206,290343.58047016273
243,33980.58719353241
354,0.0
515,0.0
1182,0.0
2,1, 1,12, 0,24, 0.00,60.00,Sunday
11,5833387.632494338
95,313697.3195757975
133,3488143.8526281044
169,58738.41912658998
206,271611.73656886193
243,17990.35179714245
354,0.0
515,0.0
1182,0.0
End of Data
 Number of Records Written=         216
