Program Version,EnergyPlus, Version 9.6.0-f420c06a69, YMD=2024.05.14 12:32
1,5,Environment Title[],Latitude[deg],Longitude[deg],Time Zone[],Elevation[m]
2,8,Day of Simulation[],Month[],Day of Month[],DST Indicator[1=yes 0=no],Hour[],StartMinute[],EndMinute[],DayType
3,5,Cumulative Day of Simulation[],Month[],Day of Month[],DST Indicator[1=yes 0=no],DayType  ! When Daily Meters Requested
4,2,Cumulative Days of Simulation[],Month[]  ! When Monthly Meters Requested
5,1,Cumulative Days of Simulation[] ! When Run Period Meters Requested
6,1,Calendar Year of Simulation[] ! When Annual Meters Requested
11,1,Electricity:Facility [J] !TimeStep
779,1,InteriorEquipment:Electricity [J] !TimeStep
95,1,General:InteriorLights:Electricity [J] !TimeStep
815,1,dishwasher:InteriorEquipment:Electricity [J] !TimeStep
852,1,refrigerator:InteriorEquipment:Electricity [J] !TimeStep
889,1,clotheswasher:InteriorEquipment:Electricity [J] !TimeStep
1000,1,television:InteriorEquipment:Electricity [J] !TimeStep
3226,1,Heating:Electricity [J] !TimeStep
3133,1,Cooling:Electricity [J] !TimeStep
End of Data Dictionary
1,ANNUAL,  46.78, -71.29,  -5.00,  91.40
2,1, 1,12, 0, 1, 0.00,60.00,Sunday
11,140587203.6604879
95,913962.7514959001
779,25836502.599204574
815,438473.423252895
852,4720424.663127804
889,149180.07309967247
1000,0.0
3133,0.0
3226,97135837.1426135
2,1, 1,12, 0, 2, 0.00,60.00,Sunday
11,138208648.68449798
95,913962.7514959001
779,23433657.347876005
815,194813.59912604262
852,4618322.922426349
889,119312.11413860306
1000,0.0
3133,0.0
3226,96062076.54598919
2,1, 1,12, 0, 3, 0.00,60.00,Sunday
11,139943516.28788385
95,913962.7514959001
779,22429740.698760387
815,145967.37412523094
852,4517408.4112679325
889,59576.19621646439
1000,0.0
3133,0.0
3226,98306977.12682733
2,1, 1,12, 0, 4, 0.00,60.00,Sunday
11,147270208.00765657
95,913962.7514959001
779,21729431.235979646
815,97406.7995630209
852,4383251.47290439
889,59576.19621646439
1000,0.0
3133,0.0
3226,105819300.71016923
2,1, 1,12, 0, 5, 0.00,60.00,Sunday
11,153623098.76703075
95,2741888.254487699
779,21691689.615990315
815,97406.7995630209
852,4315579.388951098
889,119312.11413860306
1000,0.0
3133,0.0
3226,110187919.88877556
2,1, 1,12, 0, 6, 0.00,60.00,Sunday
11,161425751.0662911
95,5712267.196849375
779,24393151.97135015
815,292220.39868906356
852,4315579.388951098
889,179048.03206074148
1000,0.0
3133,0.0
3226,112316950.06911325
2,1, 1,12, 0, 7, 0.00,60.00,Sunday
11,239614981.65528
95,6397739.2604713
779,30469896.092068538
815,584726.447816728
852,4484165.9840628095
889,358096.06412148295
1000,0.0
3133,0.0
3226,157152666.7815111
2,1, 1,12, 0, 8, 0.00,60.00,Sunday
11,201990746.10794598
95,5712267.196849375
779,36530096.29223999
815,877232.4969443938
852,4720424.663127804
889,776087.7678707795
1000,0.0
3133,0.0
3226,132058105.95039442
2,1, 1,12, 0, 9, 0.00,60.00,Sunday
11,168839045.98856574
95,2513397.5666137254
779,37091361.89418331
815,1657343.844764368
852,4821339.174286224
889,1164211.5126590051
1000,0.0
3133,0.0
3226,114723634.8166887
2,1, 1,12, 0,10, 0.00,60.00,Sunday
11,253798330.94359183
95,1713680.159054812
779,37806136.01356445
815,1852157.4438904074
852,4889011.258239515
889,1373287.2253864906
1000,0.0
3133,0.0
3226,169045728.4378994
2,1, 1,12, 0,11, 0.00,60.00,Sunday
11,238461144.4257605
95,1713680.159054812
779,38631885.27524645
815,1608497.6197635545
852,4720424.663127804
889,1343419.2664254215
1000,0.0
3133,0.0
3226,155714869.78490657
2,1, 1,12, 0,12, 0.00,60.00,Sunday
11,171697070.94440913
95,1713680.159054812
779,39324937.046586715
815,1364837.795636699
852,4720424.663127804
889,1194079.4716200747
1000,0.0
3133,0.0
3226,116066750.12192056
2,1, 1,12, 0,13, 0.00,60.00,Sunday
11,170384297.0888933
95,1713680.159054812
779,38594952.87661496
815,1169738.5460720598
852,4955496.112649762
889,1074607.6357757982
1000,0.0
3133,0.0
3226,115518911.68637118
2,1, 1,12, 0,14, 0.00,60.00,Sunday
11,245535612.9127242
95,1713680.159054812
779,37267631.61147033
815,1315991.5706358887
852,4955496.112649762
889,955295.5216371961
1000,0.0
3133,0.0
3226,161196685.792744
2,1, 1,12, 0,15, 0.00,60.00,Sunday
11,196205615.66643158
95,1713680.159054812
779,36617461.96882949
815,1072331.7465090365
852,4889011.258239515
889,835823.6857929175
1000,0.0
3133,0.0
3226,128800008.58973244
2,1, 1,12, 0,16, 0.00,60.00,Sunday
11,165452116.2218188
95,2970378.9423616747
779,38225869.85629992
815,1023485.5215082268
852,4955496.112649762
889,776087.7678707795
1000,0.0
3133,0.0
3226,109842871.97634444
2,1, 1,12, 0,17, 0.00,60.00,Sunday
11,177508370.12287623
95,6397739.2604713
779,44795449.52530815
815,1072331.7465090365
852,5226184.44846293
889,805955.7268318479
1000,0.0
3133,0.0
3226,111888836.02277671
2,1, 1,12, 0,18, 0.00,60.00,Sunday
11,258321343.6371658
95,8911136.827085022
779,55269617.26711448
815,1413398.3701989125
852,5731944.233798051
889,776087.7678707795
1000,0.0
3133,0.0
3226,148661765.81412306
2,1, 1,12, 0,19, 0.00,60.00,Sunday
11,219707041.54199648
95,11995761.113383692
779,55399498.511634886
815,2486015.7671465483
852,5900530.828909755
889,776087.7678707795
1000,0.0
3133,0.0
3226,116351328.6331777
2,1, 1,12, 0,20, 0.00,60.00,Sunday
11,181789600.19115412
95,13294003.658122186
779,51663709.24382042
815,3168434.664964901
852,5731944.233798051
889,776087.7678707795
1000,0.0
3133,0.0
3226,98561193.20801984
2,1, 1,12, 0,21, 0.00,60.00,Sunday
11,182985449.00240183
95,13294003.658122186
779,49934365.634654075
815,2583422.566709569
852,5563357.63868634
889,776087.7678707795
1000,0.0
3133,0.0
3226,101391969.48894818
2,1, 1,12, 0,22, 0.00,60.00,Sunday
11,260120117.11612418
95,10053590.266454902
779,47741914.334141746
815,1901003.6688912208
852,5461255.897984883
889,746219.8089097101
1000,0.0
3133,0.0
3226,152600300.01995108
2,1, 1,12, 0,23, 0.00,60.00,Sunday
11,219169816.63738495
95,5598021.852912389
779,40294035.26445979
815,1267145.345635079
852,5226184.44846293
889,507435.85892682965
1000,0.0
3133,0.0
3226,138888158.7323839
2,1, 1,12, 0,24, 0.00,60.00,Sunday
11,185654246.1277038
95,2284906.8787397505
779,32708042.448952936
815,877232.4969443938
852,4889011.258239515
889,268651.90894395043
1000,0.0
3133,0.0
3226,131282900.76916414
End of Data
 Number of Records Written=         216
