Program Version,EnergyPlus, Version 9.6.0-f420c06a69, YMD=2024.05.14 12:31
1,5,Environment Title[],Latitude[deg],Longitude[deg],Time Zone[],Elevation[m]
2,8,Day of Simulation[],Month[],Day of Month[],DST Indicator[1=yes 0=no],Hour[],StartMinute[],EndMinute[],DayType
3,5,Cumulative Day of Simulation[],Month[],Day of Month[],DST Indicator[1=yes 0=no],DayType  ! When Daily Report Variables Requested
4,2,Cumulative Days of Simulation[],Month[]  ! When Monthly Report Variables Requested
5,1,Cumulative Days of Simulation[] ! When Run Period Report Variables Requested
6,1,Calendar Year of Simulation[] ! When Annual Report Variables Requested
7,1,Environment,Site Outdoor Air Drybulb Temperature [C] !TimeStep
8,1,Environment,Site Outdoor Air Dewpoint Temperature [C] !TimeStep
9,1,Environment,Site Outdoor Air Wetbulb Temperature [C] !Hourly
659,1,LIVING_UNIT1,Zone Mean Air Temperature [C] !TimeStep
11,1,Electricity:Facility [J] !TimeStep
465,1,NaturalGas:Facility [J] !TimeStep
95,1,General:InteriorLights:Electricity [J] !TimeStep
169,1,dishwasher:InteriorEquipment:Electricity [J] !TimeStep
133,1,InteriorEquipment:Electricity [J] !TimeStep
206,1,refrigerator:InteriorEquipment:Electricity [J] !TimeStep
243,1,clotheswasher:InteriorEquipment:Electricity [J] !TimeStep
280,1,gas_dryer:InteriorEquipment:Electricity [J] !TimeStep
317,1,gas_range:InteriorEquipment:Electricity [J] !TimeStep
354,1,television:InteriorEquipment:Electricity [J] !TimeStep
1334,1,Heating:NaturalGas [J] !TimeStep
1359,1,Heating:Electricity [J] !TimeStep
1399,1,Cooling:Electricity [J] !TimeStep
End of Data Dictionary
1,ANNUAL,  46.78, -71.29,  -5.00,  91.40
2,1, 1,12, 0, 1, 0.00,60.00,Sunday
7,-2.0
8,-2.000002335045541
659,22.000185862370813
11,3491823.420621139
95,83652.61855354601
133,2524530.5472392533
169,29359.646160636934
206,262245.8146182114
243,9989.88619413263
280,8525.071726859142
317,0.0
354,0.0
465,18986537.870657187
1334,18050494.379274216
1359,0.0
1399,0.0
2,1, 1,12, 0, 1, 0.00,60.00,Sunday
9,-2.000002335045541
2,1, 1,12, 0, 2, 0.00,60.00,Sunday
7,-4.2
8,-4.2
659,22.000180708552318
11,3415359.397878702
95,83652.61855354601
133,2321611.218745075
169,13044.481225768317
206,256573.49569035263
243,7989.769793380162
280,5115.043036115492
317,0.0
354,0.0
465,22842657.00474246
1334,22229556.061302338
1359,0.0
1399,0.0
2,1, 1,12, 0, 2, 0.00,60.00,Sunday
9,-4.2
2,1, 1,12, 0, 3, 0.00,60.00,Sunday
7,-5.9
8,-6.198630539634405
659,22.000202085836147
11,3405636.924703201
95,83652.61855354601
133,2283389.6400247477
169,9773.797516668043
206,250967.13395932948
243,3989.536991875235
280,3410.0286907436634
317,0.0
354,0.0
465,23594844.03398897
1334,23171387.005021483
1359,0.0
1399,0.0
2,1, 1,12, 0, 3, 0.00,60.00,Sunday
9,-6.198630539634405
2,1, 1,12, 0, 4, 0.00,60.00,Sunday
7,-7.2
8,-7.555630191230219
659,22.000244083322254
11,3430486.5655486113
95,83652.61855354601
133,2242612.762173181
169,6522.2406128841585
206,243513.97071691064
243,3989.536991875235
280,1705.0143453718283
317,0.0
354,0.0
465,25748990.25395927
1334,25340194.93270039
1359,0.0
1399,0.0
2,1, 1,12, 0, 4, 0.00,60.00,Sunday
9,-7.555630191230219
2,1, 1,12, 0, 5, 0.00,60.00,Sunday
7,-8.0
8,-8.48978480259312
659,22.00026001431724
11,3555844.7504402
95,250957.855660638
133,2169503.715627116
169,6522.2406128841585
206,239754.41049728324
243,7989.769793380162
280,3410.0286907436634
317,0.0
354,0.0
465,26952206.55534356
1334,26252852.339852743
1359,0.0
1399,0.0
2,1, 1,12, 0, 5, 0.00,60.00,Sunday
9,-8.48978480259312
2,1, 1,12, 0, 6, 0.00,60.00,Sunday
7,-8.3
8,-8.6320544214861
659,22.000560202453414
11,4035962.465901865
95,522828.86595966254
133,2409871.751499703
169,19566.721838652476
206,239754.41049728324
243,11990.002594885089
280,5115.043036115492
317,0.0
354,0.0
465,26583671.0257875
1334,25000904.07648873
1359,0.0
1399,0.0
2,1, 1,12, 0, 6, 0.00,60.00,Sunday
9,-8.6320544214861
2,1, 1,12, 0, 7, 0.00,60.00,Sunday
7,-8.5
8,-8.82783271692919
659,22.00068543724
11,4291427.666821231
95,585568.329874822
133,2790879.5844359784
169,39152.57048262144
206,249120.3324479338
243,23980.005189770178
280,13640.114762974627
317,0.0
354,0.0
465,27353689.57061754
1334,23879301.58739831
1359,0.0
1399,0.0
2,1, 1,12, 0, 7, 0.00,60.00,Sunday
9,-8.82783271692919
2,1, 1,12, 0, 8, 0.00,60.00,Sunday
7,-8.8
8,-9.12154745585115
659,22.000726331353903
11,4479416.599460175
95,522828.86595966254
133,3019468.305834065
169,58738.41912658998
206,262245.8146182114
243,51970.93899067497
280,27280.229525949253
317,0.0
354,0.0
465,29296883.412108444
1334,24654908.742664717
1359,0.0
1399,0.0
2,1, 1,12, 0, 8, 0.00,60.00,Sunday
9,-9.12154745585115
2,1, 1,12, 0, 9, 0.00,60.00,Sunday
7,-9.5
8,-9.84154915451958
659,22.00035441995306
11,3830457.4521620525
95,230044.7010222515
133,2712798.4135154476
169,110973.72444561248
206,267852.1763492346
243,77961.75639082717
280,41600.62779036017
317,0.0
354,0.0
465,28359824.74344644
1334,23223935.52189415
1359,0.0
1399,0.0
2,1, 1,12, 0, 9, 0.00,60.00,Sunday
9,-9.84154915451958
2,1, 1,12, 0,10, 0.00,60.00,Sunday
7,-10.3
8,-10.851947589119767
659,22.000682514096766
11,3473215.975642325
95,156848.65978789877
133,2430885.371659916
169,124018.20567138083
206,271611.73656886193
243,91962.57119609449
280,58650.77124407846
317,0.0
354,0.0
465,28512063.76097018
1334,23204729.238038104
1359,0.0
1399,0.0
2,1, 1,12, 0,10, 0.00,60.00,Sunday
9,-10.851947589119767
2,1, 1,12, 0,11, 0.00,60.00,Sunday
7,-10.7
8,-11.683582416890017
659,22.00060732568028
11,3472257.096027027
95,156848.65978789877
133,2456052.9016004917
169,107703.04073651227
206,262245.8146182114
243,89962.45479534201
280,67175.8429709376
317,0.0
354,0.0
465,27353443.500675295
1334,22341310.527254418
1359,0.0
1399,0.0
2,1, 1,12, 0,11, 0.00,60.00,Sunday
9,-11.683582416890017
2,1, 1,12, 0,12, 0.00,60.00,Sunday
7,-10.8
8,-11.743740311828423
659,22.000541170054724
11,3448914.7329943404
95,156848.65978789877
133,2433057.8820045
169,91387.87580164369
206,262245.8146182114
243,79961.87279157966
280,69905.58816024504
317,0.0
354,0.0
465,27064221.923777252
1334,22329831.61272279
1359,0.0
1399,0.0
2,1, 1,12, 0,12, 0.00,60.00,Sunday
9,-11.743740311828423
2,1, 1,12, 0,13, 0.00,60.00,Sunday
7,-10.6
8,-11.523093849872815
659,22.00089926769503
11,3393899.081810888
95,156848.65978789877
133,2386409.541030472
169,78324.26777055899
206,275305.33959165344
243,71961.40718856991
280,63765.81428019395
317,0.0
354,0.0
465,26420049.65931934
1334,22053310.945835963
1359,0.0
1399,0.0
2,1, 1,12, 0,13, 0.00,60.00,Sunday
9,-11.523093849872815
2,1, 1,12, 0,14, 0.00,60.00,Sunday
7,-10.3
8,-11.438126231914245
659,22.000543230537147
11,3472237.093763765
95,156848.65978789877
133,2448016.388041509
169,88117.19209254326
206,275305.33959165344
243,63971.63739518969
280,57970.48774264223
317,0.0
354,0.0
465,26496549.240095373
1334,22606238.083914347
1359,0.0
1399,0.0
2,1, 1,12, 0,14, 0.00,60.00,Sunday
9,-11.438126231914245
2,1, 1,12, 0,15, 0.00,60.00,Sunday
7,-9.8
8,-10.839810800675263
659,22.000606135182053
11,3529373.5253839036
95,156848.65978789877
133,2524725.490616589
169,71802.02715767492
206,271611.73656886193
243,55971.17179217984
280,52175.161205090524
317,0.0
354,0.0
465,25515260.760320257
1334,21959405.60253692
1359,0.0
1399,0.0
2,1, 1,12, 0,15, 0.00,60.00,Sunday
9,-10.839810800675263
2,1, 1,12, 0,16, 0.00,60.00,Sunday
7,-9.3
8,-10.26873986632781
659,22.001136015976705
11,3759385.1220856113
95,271871.0102990245
133,2633659.9518394377
169,68531.3434485745
206,275305.33959165344
243,51970.93899067497
280,49445.41601578309
317,0.0
354,0.0
465,25658185.122340128
1334,22078944.054022405
1359,0.0
1399,0.0
2,1, 1,12, 0,16, 0.00,60.00,Sunday
9,-10.26873986632781
2,1, 1,12, 0,17, 0.00,60.00,Sunday
7,-9.0
8,-9.631936030197465
659,22.000615366847736
11,4514351.625310491
95,585568.329874822
133,3052358.89628899
169,71802.02715767492
206,290343.58047016273
243,53971.055391427355
280,47740.40167041126
317,0.0
354,0.0
465,26878896.985426754
1334,22605134.410927046
1359,0.0
1399,0.0
2,1, 1,12, 0,17, 0.00,60.00,Sunday
9,-9.631936030197465
2,1, 1,12, 0,18, 0.00,60.00,Sunday
7,-9.0
8,-9.5608035705968
659,22.000550416159893
11,5295653.296224246
95,815613.0308970734
133,3656383.4267305257
169,94639.43270542756
206,318441.34632211406
243,51970.93899067497
280,46715.67082647567
317,0.0
354,0.0
465,26127551.361165285
1334,20700168.970715005
1359,0.0
1399,0.0
2,1, 1,12, 0,18, 0.00,60.00,Sunday
9,-9.5608035705968
2,1, 1,12, 0,19, 0.00,60.00,Sunday
7,-9.1
8,-10.008556105180014
659,22.00086591066882
11,6051917.221013391
95,1097940.6185152913
133,4004673.0667172875
169,166460.58666841884
206,327807.2682727643
243,51970.93899067497
280,44330.37297966761
317,0.0
354,0.0
465,24896681.144895848
1334,19510137.80894493
1359,0.0
1399,0.0
2,1, 1,12, 0,19, 0.00,60.00,Sunday
9,-10.008556105180014
2,1, 1,12, 0,20, 0.00,60.00,Sunday
7,-9.4
8,-10.742193848268183
659,22.000416003817328
11,6360824.952108653
95,1216765.360778851
133,4150243.479685992
169,212154.52456924066
206,318441.34632211406
243,51970.93899067497
280,43650.08947823131
317,0.0
354,0.0
465,25641414.875642337
1334,20897956.12754384
1359,0.0
1399,0.0
2,1, 1,12, 0,20, 0.00,60.00,Sunday
9,-10.742193848268183
2,1, 1,12, 0,21, 0.00,60.00,Sunday
7,-10.1
8,-11.31333528157844
659,22.000860920302205
11,6433053.655783261
95,1216765.360778851
133,4224217.7688835785
169,172982.8272813029
206,309075.4243714635
243,51970.93899067497
280,45010.656481103826
317,0.0
354,0.0
465,25067933.523367424
1334,20840268.476334523
1359,0.0
1399,0.0
2,1, 1,12, 0,21, 0.00,60.00,Sunday
9,-11.31333528157844
2,1, 1,12, 0,22, 0.00,60.00,Sunday
7,-10.9
8,-12.205826279051855
659,22.00043672082218
11,6050035.597108647
95,920178.804089006
133,4087454.979919541
169,127288.88938048104
206,303403.1054436047
243,49970.82258992248
280,46715.67082647567
317,0.0
354,0.0
465,26506020.594596907
1334,22711324.673241947
1359,0.0
1399,0.0
2,1, 1,12, 0,22, 0.00,60.00,Sunday
9,-12.205826279051855
2,1, 1,12, 0,23, 0.00,60.00,Sunday
7,-12.1
8,-13.098383856871454
659,22.000489521332927
11,5097090.995670479
95,512372.28864046925
133,3527470.9569711694
169,84846.50838344306
206,290343.58047016273
243,33980.58719353241
280,37510.31559818029
317,0.0
354,0.0
465,26361271.714958593
1334,23487565.755572215
1359,0.0
1399,0.0
2,1, 1,12, 0,23, 0.00,60.00,Sunday
9,-13.098383856871454
2,1, 1,12, 0,24, 0.00,60.00,Sunday
7,-13.5
8,-14.428912969801702
659,22.00052727677164
11,4346929.116229937
95,209131.546383865
133,3045949.834236347
169,58738.41912658998
206,271611.73656886193
243,17990.35179714245
280,20460.17214446194
317,0.0
354,0.0
465,26666256.571782824
1334,24843398.449275836
1359,0.0
1399,0.0
2,1, 1,12, 0,24, 0.00,60.00,Sunday
9,-14.428912969801702
End of Data
 Number of Records Written=         408
