Program Version,EnergyPlus, Version 9.6.0-f420c06a69, YMD=2024.05.14 12:32
1,5,Environment Title[],Latitude[deg],Longitude[deg],Time Zone[],Elevation[m]
2,8,Day of Simulation[],Month[],Day of Month[],DST Indicator[1=yes 0=no],Hour[],StartMinute[],EndMinute[],DayType
3,5,Cumulative Day of Simulation[],Month[],Day of Month[],DST Indicator[1=yes 0=no],DayType  ! When Daily Meters Requested
4,2,Cumulative Days of Simulation[],Month[]  ! When Monthly Meters Requested
5,1,Cumulative Days of Simulation[] ! When Run Period Meters Requested
6,1,Calendar Year of Simulation[] ! When Annual Meters Requested
11,1,Electricity:Facility [J] !TimeStep
779,1,InteriorEquipment:Electricity [J] !TimeStep
95,1,General:InteriorLights:Electricity [J] !TimeStep
815,1,dishwasher:InteriorEquipment:Electricity [J] !TimeStep
852,1,refrigerator:InteriorEquipment:Electricity [J] !TimeStep
889,1,clotheswasher:InteriorEquipment:Electricity [J] !TimeStep
1000,1,television:InteriorEquipment:Electricity [J] !TimeStep
3223,1,Heating:Electricity [J] !TimeStep
3133,1,Cooling:Electricity [J] !TimeStep
End of Data Dictionary
1,ANNUAL,  46.78, -71.29,  -5.00,  91.40
2,1, 1,12, 0, 1, 0.00,60.00,Sunday
11,79094314.07897729
95,913962.7514959001
779,25836502.599204574
815,438473.423252895
852,4720424.663127804
889,149180.07309967247
1000,0.0
3133,0.0
3223,39641019.41563697
2,1, 1,12, 0, 2, 0.00,60.00,Sunday
11,81607235.01180811
95,913962.7514959001
779,23433657.347876005
815,194813.59912604262
852,4618322.922426349
889,119312.11413860306
1000,0.0
3133,0.0
3223,43338225.49868144
2,1, 1,12, 0, 3, 0.00,60.00,Sunday
11,81443346.58906618
95,913962.7514959001
779,22429740.698760387
815,145967.37412523094
852,4517408.4112679325
889,59576.19621646439
1000,0.0
3133,0.0
3223,43535722.45814611
2,1, 1,12, 0, 4, 0.00,60.00,Sunday
11,84100999.53784092
95,913962.7514959001
779,21729431.235979646
815,97406.7995630209
852,4383251.47290439
889,59576.19621646439
1000,0.0
3133,0.0
3223,46196233.00973509
2,1, 1,12, 0, 5, 0.00,60.00,Sunday
11,87312893.56031503
95,2741888.254487699
779,21691689.615990315
815,97406.7995630209
852,4315579.388951098
889,119312.11413860306
1000,0.0
3133,0.0
3223,47322876.08500758
2,1, 1,12, 0, 6, 0.00,60.00,Sunday
11,93332836.13695972
95,5712267.196849375
779,24393151.97135015
815,292220.39868906356
852,4315579.388951098
889,179048.03206074148
1000,0.0
3133,0.0
3223,47671199.74452992
2,1, 1,12, 0, 7, 0.00,60.00,Sunday
11,169283084.35146385
95,6397739.2604713
779,30469896.092068538
815,584726.447816728
852,4484165.9840628095
889,358096.06412148295
1000,0.0
3133,0.0
3223,90003496.88135295
2,1, 1,12, 0, 8, 0.00,60.00,Sunday
11,131182340.25436486
95,5712267.196849375
779,36530096.29223999
815,877232.4969443938
852,4720424.663127804
889,776087.7678707795
1000,0.0
3133,0.0
3223,64662747.50081361
2,1, 1,12, 0, 9, 0.00,60.00,Sunday
11,97612429.64831781
95,2513397.5666137254
779,37091361.89418331
815,1657343.844764368
852,4821339.174286224
889,1164211.5126590051
1000,0.0
3133,0.0
3223,46914083.74774623
2,1, 1,12, 0,10, 0.00,60.00,Sunday
11,179158553.90893131
95,1713680.159054812
779,37806136.01356445
815,1852157.4438904074
852,4889011.258239515
889,1373287.2253864906
1000,0.0
3133,0.0
3223,97597408.15679112
2,1, 1,12, 0,11, 0.00,60.00,Sunday
11,162653336.03856605
95,1713680.159054812
779,38631885.27524645
815,1608497.6197635545
852,4720424.663127804
889,1343419.2664254215
1000,0.0
3133,0.0
3223,83186915.5612854
2,1, 1,12, 0,12, 0.00,60.00,Sunday
11,96073227.23761205
95,1713680.159054812
779,39324937.046586715
815,1364837.795636699
852,4720424.663127804
889,1194079.4716200747
1000,0.0
3133,0.0
3223,43839872.32283178
2,1, 1,12, 0,13, 0.00,60.00,Sunday
11,94798525.73816192
95,1713680.159054812
779,38594952.87661496
815,1169738.5460720598
852,4955496.112649762
889,1074607.6357757982
1000,0.0
3133,0.0
3223,43352226.92007851
2,1, 1,12, 0,14, 0.00,60.00,Sunday
11,169715957.13710108
95,1713680.159054812
779,37267631.61147033
815,1315991.5706358887
852,4955496.112649762
889,955295.5216371961
1000,0.0
3133,0.0
3223,88573312.93520422
2,1, 1,12, 0,15, 0.00,60.00,Sunday
11,121549812.53918926
95,1713680.159054812
779,36617461.96882949
815,1072331.7465090365
852,4889011.258239515
889,835823.6857929175
1000,0.0
3133,0.0
3223,57432067.86785421
2,1, 1,12, 0,16, 0.00,60.00,Sunday
11,94072264.5450441
95,2970378.9423616747
779,38225869.85629992
815,1023485.5215082268
852,4955496.112649762
889,776087.7678707795
1000,0.0
3133,0.0
3223,41974076.64718844
2,1, 1,12, 0,17, 0.00,60.00,Sunday
11,106284066.935577
95,6397739.2604713
779,44795449.52530815
815,1072331.7465090365
852,5226184.44846293
889,805955.7268318479
1000,0.0
3133,0.0
3223,44152848.24451709
2,1, 1,12, 0,18, 0.00,60.00,Sunday
11,185695771.71870217
95,8911136.827085022
779,55269617.26711448
815,1413398.3701989125
852,5731944.233798051
889,776087.7678707795
1000,0.0
3133,0.0
3223,79236124.53445788
2,1, 1,12, 0,19, 0.00,60.00,Sunday
11,149066063.46481964
95,11995761.113383692
779,55399498.511634886
815,2486015.7671465483
852,5900530.828909755
889,776087.7678707795
1000,0.0
3133,0.0
3223,49086707.01377697
2,1, 1,12, 0,20, 0.00,60.00,Sunday
11,114841704.10708955
95,13294003.658122186
779,51663709.24382042
815,3168434.664964901
852,5731944.233798051
889,776087.7678707795
1000,0.0
3133,0.0
3223,35388253.214293115
2,1, 1,12, 0,21, 0.00,60.00,Sunday
11,113550004.98947284
95,13294003.658122186
779,49934365.634654075
815,2583422.566709569
852,5563357.63868634
889,776087.7678707795
1000,0.0
3133,0.0
3223,35724476.938124835
2,1, 1,12, 0,22, 0.00,60.00,Sunday
11,184189007.28318763
95,10053590.266454902
779,47741914.334141746
815,1901003.6688912208
852,5461255.897984883
889,746219.8089097101
1000,0.0
3133,0.0
3223,79872126.32680462
2,1, 1,12, 0,23, 0.00,60.00,Sunday
11,138913674.9918486
95,5598021.852912389
779,40294035.26445979
815,1267145.345635079
852,5226184.44846293
889,507435.85892682965
1000,0.0
3133,0.0
3223,61943349.99016542
2,1, 1,12, 0,24, 0.00,60.00,Sunday
11,100151005.77996494
95,2284906.8787397505
779,32708042.448952936
815,877232.4969443938
852,4889011.258239515
889,268651.90894395043
1000,0.0
3133,0.0
3223,49060352.06517937
End of Data
 Number of Records Written=         216
