Program Version,EnergyPlus, Version 9.6.0-f420c06a69, YMD=2024.05.14 12:31
1,5,Environment Title[],Latitude[deg],Longitude[deg],Time Zone[],Elevation[m]
2,8,Day of Simulation[],Month[],Day of Month[],DST Indicator[1=yes 0=no],Hour[],StartMinute[],EndMinute[],DayType
3,5,Cumulative Day of Simulation[],Month[],Day of Month[],DST Indicator[1=yes 0=no],DayType  ! When Daily Meters Requested
4,2,Cumulative Days of Simulation[],Month[]  ! When Monthly Meters Requested
5,1,Cumulative Days of Simulation[] ! When Run Period Meters Requested
6,1,Calendar Year of Simulation[] ! When Annual Meters Requested
11,1,Electricity:Facility [J] !TimeStep
465,1,NaturalGas:Facility [J] !TimeStep
133,1,InteriorEquipment:Electricity [J] !TimeStep
95,1,General:InteriorLights:Electricity [J] !TimeStep
169,1,dishwasher:InteriorEquipment:Electricity [J] !TimeStep
206,1,refrigerator:InteriorEquipment:Electricity [J] !TimeStep
243,1,clotheswasher:InteriorEquipment:Electricity [J] !TimeStep
280,1,gas_dryer:InteriorEquipment:Electricity [J] !TimeStep
317,1,gas_range:InteriorEquipment:Electricity [J] !TimeStep
354,1,television:InteriorEquipment:Electricity [J] !TimeStep
513,1,InteriorEquipment:NaturalGas [J] !TimeStep
1297,1,Heating:Electricity [J] !TimeStep
1272,1,Heating:NaturalGas [J] !TimeStep
1337,1,Cooling:Electricity [J] !TimeStep
12,1,Electricity:Facility [J] !Hourly
End of Data Dictionary
1,ANNUAL,  46.78, -71.29,  -5.00,  91.40
2,1, 1,12, 0, 1, 0.00,60.00,Sunday
11,4383487.564600674
95,125478.927830319
133,3077176.1879200563
169,29359.646160636934
206,262245.8146182114
243,9989.88619413263
280,8525.071726859142
317,0.0
354,0.0
465,38203008.80772901
513,399191.4000475487
1272,37266966.29373179
1297,0.0
1337,0.0
2,1, 1,12, 0, 1, 0.00,60.00,Sunday
12,4383487.564600674
2,1, 1,12, 0, 2, 0.00,60.00,Sunday
11,4196599.938708598
95,125478.927830319
133,2830452.281021234
169,13044.481225768317
206,256573.49569035263
243,7989.769793380162
280,5115.043036115492
317,0.0
354,0.0
465,40524069.69059743
513,319125.02881530335
1272,39910968.749773115
1297,0.0
1337,0.0
2,1, 1,12, 0, 2, 0.00,60.00,Sunday
12,4196599.938708598
2,1, 1,12, 0, 3, 0.00,60.00,Sunday
11,4169541.5190093764
95,125478.927830319
133,2786331.095781763
169,9773.797516668043
206,250967.13395932948
243,3989.536991875235
280,3410.0286907436634
317,0.0
354,0.0
465,41088382.96211199
513,236979.82523833396
1272,40664925.93488279
1297,0.0
1337,0.0
2,1, 1,12, 0, 3, 0.00,60.00,Sunday
12,4169541.5190093764
2,1, 1,12, 0, 4, 0.00,60.00,Sunday
11,4175002.8790907874
95,125478.927830319
133,2738474.690107224
169,6522.2406128841585
206,243513.97071691064
243,3989.536991875235
280,1705.0143453718283
317,0.0
354,0.0
465,43429688.256644264
513,200532.11185259442
1272,43020892.93746899
1297,0.0
1337,0.0
2,1, 1,12, 0, 4, 0.00,60.00,Sunday
12,4175002.8790907874
2,1, 1,12, 0, 5, 0.00,60.00,Sunday
11,4362832.644383806
95,376436.783490957
133,2646634.392862877
169,6522.2406128841585
206,239754.41049728324
243,7989.769793380162
280,3410.0286907436634
317,0.0
354,0.0
465,44832288.45509639
513,276719.3665492255
1272,44132934.24382269
1297,0.0
1337,0.0
2,1, 1,12, 0, 5, 0.00,60.00,Sunday
12,4362832.644383806
2,1, 1,12, 0, 6, 0.00,60.00,Sunday
11,5045649.282186871
95,784243.2989394937
133,2942311.239852438
169,19566.721838652476
206,239754.41049728324
243,11990.002594885089
280,5115.043036115492
317,0.0
354,0.0
465,44547901.23093462
513,370686.249027145
1272,42965134.29375077
1297,0.0
1337,0.0
2,1, 1,12, 0, 6, 0.00,60.00,Sunday
12,5045649.282186871
2,1, 1,12, 0, 7, 0.00,60.00,Sunday
11,5422928.213420562
95,878352.4948122329
133,3406061.054219706
169,39152.57048262144
206,249120.3324479338
243,23980.005189770178
280,13640.114762974627
317,0.0
354,0.0
465,45280187.58475941
513,748178.6297525275
1272,41805799.62188716
1297,0.0
1337,0.0
2,1, 1,12, 0, 7, 0.00,60.00,Sunday
12,5422928.213420562
2,1, 1,12, 0, 8, 0.00,60.00,Sunday
11,5613869.200684754
95,784243.2989394937
133,3673144.708155208
169,58738.41912658998
206,262245.8146182114
243,51970.93899067497
280,27280.229525949253
317,0.0
354,0.0
465,47300418.69317676
513,1265026.86112407
1272,42658444.03765967
1297,0.0
1337,0.0
2,1, 1,12, 0, 8, 0.00,60.00,Sunday
12,5613869.200684754
2,1, 1,12, 0, 9, 0.00,60.00,Sunday
11,4745359.802087361
95,345067.0515333772
133,3265444.0541962506
169,110973.72444561248
206,267852.1763492346
243,77961.75639082717
280,41600.62779036017
317,0.0
354,0.0
465,47112629.799269706
513,1578182.5793280303
1272,41976740.58496924
1297,0.0
1337,0.0
2,1, 1,12, 0, 9, 0.00,60.00,Sunday
12,4745359.802087361
2,1, 1,12, 0,10, 0.00,60.00,Sunday
11,4288801.182387657
95,235272.9896818481
133,2901231.5013986616
169,124018.20567138083
206,271611.73656886193
243,91962.57119609449
280,58650.77124407846
317,0.0
354,0.0
465,48123598.964648195
513,1933295.3493115837
1272,42816264.445202276
1297,0.0
1337,0.0
2,1, 1,12, 0,10, 0.00,60.00,Sunday
12,4288801.182387657
2,1, 1,12, 0,11, 0.00,60.00,Sunday
11,4315035.692920306
95,235272.9896818481
133,2937460.7935626325
169,107703.04073651227
206,262245.8146182114
243,89962.45479534201
280,67175.8429709376
317,0.0
354,0.0
465,47386755.21025539
513,2036126.6366556163
1272,42374622.23856458
1297,0.0
1337,0.0
2,1, 1,12, 0,11, 0.00,60.00,Sunday
12,4315035.692920306
2,1, 1,12, 0,12, 0.00,60.00,Sunday
11,4287636.847771403
95,235272.9896818481
133,2914613.264129619
169,91387.87580164369
206,262245.8146182114
243,79961.87279157966
280,69905.58816024504
317,0.0
354,0.0
465,46907902.29036012
513,2183609.7041971404
1272,42173511.98023029
1297,0.0
1337,0.0
2,1, 1,12, 0,12, 0.00,60.00,Sunday
12,4287636.847771403
2,1, 1,12, 0,13, 0.00,60.00,Sunday
11,4238395.540593999
95,235272.9896818481
133,2859852.9641917683
169,78324.26777055899
206,275305.33959165344
243,71961.40718856991
280,63765.81428019395
317,0.0
354,0.0
465,46784119.96727204
513,2148401.4294528635
1272,42417381.25432257
1297,0.0
1337,0.0
2,1, 1,12, 0,13, 0.00,60.00,Sunday
12,4238395.540593999
2,1, 1,12, 0,14, 0.00,60.00,Sunday
11,4327749.974655548
95,235272.9896818481
133,2937831.2192934295
169,88117.19209254326
206,275305.33959165344
243,63971.63739518969
280,57970.48774264223
317,0.0
354,0.0
465,46810374.80627337
513,1896477.9350964525
1272,42920063.65042461
1297,0.0
1337,0.0
2,1, 1,12, 0,14, 0.00,60.00,Sunday
12,4327749.974655548
2,1, 1,12, 0,15, 0.00,60.00,Sunday
11,4404789.780106509
95,235272.9896818481
133,3042120.9823455065
169,71802.02715767492
206,271611.73656886193
243,55971.17179217984
280,52175.161205090524
317,0.0
354,0.0
465,45271817.32285781
513,1757546.867703995
1272,41715962.16530308
1297,0.0
1337,0.0
2,1, 1,12, 0,15, 0.00,60.00,Sunday
12,4404789.780106509
2,1, 1,12, 0,16, 0.00,60.00,Sunday
11,4720149.382535793
95,407806.5154485367
133,3179816.025349182
169,68531.3434485745
206,275305.33959165344
243,51970.93899067497
280,49445.41601578309
317,0.0
354,0.0
465,45414216.96579791
513,1874248.8595692539
1272,41834975.89764546
1297,0.0
1337,0.0
2,1, 1,12, 0,16, 0.00,60.00,Sunday
12,4720149.382535793
2,1, 1,12, 0,17, 0.00,60.00,Sunday
11,5716685.114076646
95,878352.4948122329
133,3698365.8101352453
169,71802.02715767492
206,290343.58047016273
243,53971.055391427355
280,47740.40167041126
317,0.0
354,0.0
465,46143728.5213471
513,2322975.921478171
1272,41869965.94699837
1297,0.0
1337,0.0
2,1, 1,12, 0,17, 0.00,60.00,Sunday
12,5716685.114076646
2,1, 1,12, 0,18, 0.00,60.00,Sunday
11,6747905.707676932
95,1223419.5463456102
133,4441178.583939641
169,94639.43270542756
206,318441.34632211406
243,51970.93899067497
280,46715.67082647567
317,0.0
354,0.0
465,44578305.675194845
513,3088933.389152113
1272,39150923.28488497
1297,0.0
1337,0.0
2,1, 1,12, 0,18, 0.00,60.00,Sunday
12,6747905.707676932
2,1, 1,12, 0,19, 0.00,60.00,Sunday
11,7717900.978743789
95,1646910.9277729366
133,4856723.7382446425
169,166460.58666841884
206,327807.2682727643
243,51970.93899067497
280,44330.37297966761
317,0.0
354,0.0
465,43181031.0709133
513,2624965.7872353313
1272,37794487.735072434
1297,0.0
1337,0.0
2,1, 1,12, 0,19, 0.00,60.00,Sunday
12,7717900.978743789
2,1, 1,12, 0,20, 0.00,60.00,Sunday
11,8108282.587392055
95,1825148.0411682762
133,5029727.321527366
169,212154.52456924066
206,318441.34632211406
243,51970.93899067497
280,43650.08947823131
317,0.0
354,0.0
465,44156203.454552926
513,1882795.5296278403
1272,39412744.70652455
1297,0.0
1337,0.0
2,1, 1,12, 0,20, 0.00,60.00,Sunday
12,8108282.587392055
2,1, 1,12, 0,21, 0.00,60.00,Sunday
11,8215058.7326075155
95,1825148.0411682762
133,5133937.094135564
169,172982.8272813029
206,309075.4243714635
243,51970.93899067497
280,45010.656481103826
317,0.0
354,0.0
465,43753810.776483476
513,1596336.5856489816
1272,39526145.72949175
1297,0.0
1337,0.0
2,1, 1,12, 0,21, 0.00,60.00,Sunday
12,8215058.7326075155
2,1, 1,12, 0,22, 0.00,60.00,Sunday
11,7660370.774581437
95,1380268.2061335088
133,4975935.72170261
169,127288.88938048104
206,303403.1054436047
243,49970.82258992248
280,46715.67082647567
317,0.0
354,0.0
465,45728108.71272526
513,1488115.634091579
1272,41933412.791394405
1297,0.0
1337,0.0
2,1, 1,12, 0,22, 0.00,60.00,Sunday
12,7660370.774581437
2,1, 1,12, 0,23, 0.00,60.00,Sunday
11,6389998.562642258
95,768558.4329607037
133,4296337.176578596
169,84846.50838344306
206,290343.58047016273
243,33980.58719353241
280,37510.31559818029
317,0.0
354,0.0
465,46114118.75531184
513,1152143.2788736224
1272,43240412.795939125
1297,0.0
1337,0.0
2,1, 1,12, 0,23, 0.00,60.00,Sunday
12,6389998.562642258
2,1, 1,12, 0,24, 0.00,60.00,Sunday
11,5402557.168960696
95,313697.3195757975
133,3714080.272529392
169,58738.41912658998
206,271611.73656886193
243,17990.35179714245
280,20460.17214446194
317,0.0
354,0.0
465,47542315.56753068
513,716125.7237120039
1272,45719457.44503102
1297,0.0
1337,0.0
2,1, 1,12, 0,24, 0.00,60.00,Sunday
12,5402557.168960696
End of Data
 Number of Records Written=         360
