Program Version,EnergyPlus, Version 9.6.0-f420c06a69, YMD=2024.05.14 12:31
1,5,Environment Title[],Latitude[deg],Longitude[deg],Time Zone[],Elevation[m]
2,8,Day of Simulation[],Month[],Day of Month[],DST Indicator[1=yes 0=no],Hour[],StartMinute[],EndMinute[],DayType
3,5,Cumulative Day of Simulation[],Month[],Day of Month[],DST Indicator[1=yes 0=no],DayType  ! When Daily Report Variables Requested
4,2,Cumulative Days of Simulation[],Month[]  ! When Monthly Report Variables Requested
5,1,Cumulative Days of Simulation[] ! When Run Period Report Variables Requested
6,1,Calendar Year of Simulation[] ! When Annual Report Variables Requested
7,1,Environment,Site Outdoor Air Drybulb Temperature [C] !TimeStep
8,1,Environment,Site Outdoor Air Dewpoint Temperature [C] !TimeStep
9,1,Environment,Site Outdoor Air Wetbulb Temperature [C] !Hourly
659,1,LIVING_UNIT1,Zone Mean Air Temperature [C] !TimeStep
11,1,Electricity:Facility [J] !TimeStep
465,1,NaturalGas:Facility [J] !TimeStep
133,1,InteriorEquipment:Electricity [J] !TimeStep
95,1,General:InteriorLights:Electricity [J] !TimeStep
169,1,dishwasher:InteriorEquipment:Electricity [J] !TimeStep
206,1,refrigerator:InteriorEquipment:Electricity [J] !TimeStep
243,1,clotheswasher:InteriorEquipment:Electricity [J] !TimeStep
280,1,gas_dryer:InteriorEquipment:Electricity [J] !TimeStep
317,1,gas_range:InteriorEquipment:Electricity [J] !TimeStep
354,1,television:InteriorEquipment:Electricity [J] !TimeStep
513,1,InteriorEquipment:NaturalGas [J] !TimeStep
1359,1,Heating:Electricity [J] !TimeStep
1334,1,Heating:NaturalGas [J] !TimeStep
1399,1,Cooling:Electricity [J] !TimeStep
End of Data Dictionary
1,ANNUAL,  46.78, -71.29,  -5.00,  91.40
2,1, 1,12, 0, 1, 0.00,60.00,Sunday
7,-2.0
8,-2.000002335045541
659,22.000198026741675
11,3427392.5122064827
95,83652.61855354601
133,2524530.5472392533
169,29359.646160636934
206,262245.8146182114
243,9989.88619413263
280,8525.071726859142
317,0.0
354,0.0
465,17801706.976730205
513,399191.4000475487
1334,16865663.485347234
1359,0.0
1399,0.0
2,1, 1,12, 0, 1, 0.00,60.00,Sunday
9,-2.000002335045541
2,1, 1,12, 0, 2, 0.00,60.00,Sunday
7,-4.2
8,-4.2
659,22.000256561759073
11,3341775.1828736453
95,83652.61855354601
133,2321611.218745075
169,13044.481225768317
206,256573.49569035263
243,7989.769793380162
280,5115.043036115492
317,0.0
354,0.0
465,21585292.6173192
513,319125.02881530335
1334,20972191.67387908
1359,0.0
1399,0.0
2,1, 1,12, 0, 2, 0.00,60.00,Sunday
9,-4.2
2,1, 1,12, 0, 3, 0.00,60.00,Sunday
7,-5.9
8,-6.198630539634405
659,22.00024299286595
11,3330146.313414987
95,83652.61855354601
133,2283389.6400247477
169,9773.797516668043
206,250967.13395932948
243,3989.536991875235
280,3410.0286907436634
317,0.0
354,0.0
465,22326610.7578263
513,236979.82523833396
1334,21903153.72885881
1359,0.0
1399,0.0
2,1, 1,12, 0, 3, 0.00,60.00,Sunday
9,-6.198630539634405
2,1, 1,12, 0, 4, 0.00,60.00,Sunday
7,-7.2
8,-7.555630191230219
659,22.000221003613667
11,3350211.659656702
95,83652.61855354601
133,2242612.762173181
169,6522.2406128841585
206,243513.97071691064
243,3989.536991875235
280,1705.0143453718283
317,0.0
354,0.0
465,24441923.902024347
513,200532.11185259442
1334,24033128.58076547
1359,0.0
1399,0.0
2,1, 1,12, 0, 4, 0.00,60.00,Sunday
9,-7.555630191230219
2,1, 1,12, 0, 5, 0.00,60.00,Sunday
7,-8.0
8,-8.48978480259312
659,22.00026818194231
11,3473297.39027652
95,250957.855660638
133,2169503.715627116
169,6522.2406128841585
206,239754.41049728324
243,7989.769793380162
280,3410.0286907436634
317,0.0
354,0.0
465,25619725.6852282
513,276719.3665492255
1334,24920371.46973738
1359,0.0
1399,0.0
2,1, 1,12, 0, 5, 0.00,60.00,Sunday
9,-8.48978480259312
2,1, 1,12, 0, 6, 0.00,60.00,Sunday
7,-8.3
8,-8.6320544214861
659,22.000283094302716
11,3956266.4095754083
95,522828.86595966254
133,2409871.751499703
169,19566.721838652476
206,239754.41049728324
243,11990.002594885089
280,5115.043036115492
317,0.0
354,0.0
465,25276741.991955496
513,370686.249027145
1334,23693975.042656727
1359,0.0
1399,0.0
2,1, 1,12, 0, 6, 0.00,60.00,Sunday
9,-8.6320544214861
2,1, 1,12, 0, 7, 0.00,60.00,Sunday
7,-8.5
8,-8.82783271692919
659,22.000807823327406
11,4211999.013352908
95,585568.329874822
133,2790879.5844359784
169,39152.57048262144
206,249120.3324479338
243,23980.005189770178
280,13640.114762974627
317,0.0
354,0.0
465,25989587.00086022
513,748178.6297525275
1334,22515199.01764099
1359,0.0
1399,0.0
2,1, 1,12, 0, 7, 0.00,60.00,Sunday
9,-8.82783271692919
2,1, 1,12, 0, 8, 0.00,60.00,Sunday
7,-8.8
8,-9.12154745585115
659,22.000821868338754
11,4398916.895680609
95,522828.86595966254
133,3019468.305834065
169,58738.41912658998
206,262245.8146182114
243,51970.93899067497
280,27280.229525949253
317,0.0
354,0.0
465,27941295.28962707
513,1265026.86112407
1334,23299320.620183345
1359,0.0
1399,0.0
2,1, 1,12, 0, 8, 0.00,60.00,Sunday
9,-9.12154745585115
2,1, 1,12, 0, 9, 0.00,60.00,Sunday
7,-9.5
8,-9.84154915451958
659,22.000338953532026
11,3764949.5979878027
95,230044.7010222515
133,2712798.4135154476
169,110973.72444561248
206,267852.1763492346
243,77961.75639082717
280,41600.62779036017
317,0.0
354,0.0
465,27444186.755300723
513,1578182.5793280303
1334,22308297.533748433
1359,0.0
1399,0.0
2,1, 1,12, 0, 9, 0.00,60.00,Sunday
9,-9.84154915451958
2,1, 1,12, 0,10, 0.00,60.00,Sunday
7,-10.3
8,-10.851947589119767
659,22.000796656711834
11,3407037.8355361954
95,156848.65978789877
133,2430885.371659916
169,124018.20567138083
206,271611.73656886193
243,91962.57119609449
280,58650.77124407846
317,0.0
354,0.0
465,27571820.949711025
513,1933295.3493115837
1334,22264486.42677895
1359,0.0
1399,0.0
2,1, 1,12, 0,10, 0.00,60.00,Sunday
9,-10.851947589119767
2,1, 1,12, 0,11, 0.00,60.00,Sunday
7,-10.7
8,-11.683582416890017
659,22.000698507171393
11,3409758.7358969427
95,156848.65978789877
133,2456052.9016004917
169,107703.04073651227
206,262245.8146182114
243,89962.45479534201
280,67175.8429709376
317,0.0
354,0.0
465,26490804.002626635
513,2036126.6366556163
1334,21478671.029205758
1359,0.0
1399,0.0
2,1, 1,12, 0,11, 0.00,60.00,Sunday
9,-11.683582416890017
2,1, 1,12, 0,12, 0.00,60.00,Sunday
7,-10.8
8,-11.743740311828423
659,22.000635223015298
11,3384723.27448516
95,156848.65978789877
133,2433057.8820045
169,91387.87580164369
206,262245.8146182114
243,79961.87279157966
280,69905.58816024504
317,0.0
354,0.0
465,26141629.208723582
513,2183609.7041971404
1334,21407238.897669118
1359,0.0
1399,0.0
2,1, 1,12, 0,12, 0.00,60.00,Sunday
9,-11.743740311828423
2,1, 1,12, 0,13, 0.00,60.00,Sunday
7,-10.6
8,-11.523093849872815
659,22.001022703617625
11,3328943.593119761
95,156848.65978789877
133,2386409.541030472
169,78324.26777055899
206,275305.33959165344
243,71961.40718856991
280,63765.81428019395
317,0.0
354,0.0
465,25454306.1052588
513,2148401.4294528635
1334,21087567.39177542
1359,0.0
1399,0.0
2,1, 1,12, 0,13, 0.00,60.00,Sunday
9,-11.523093849872815
2,1, 1,12, 0,14, 0.00,60.00,Sunday
7,-10.3
8,-11.438126231914245
659,22.00054515536819
11,3404222.2028490608
95,156848.65978789877
133,2448016.388041509
169,88117.19209254326
206,275305.33959165344
243,63971.63739518969
280,57970.48774264223
317,0.0
354,0.0
465,25456501.925144132
513,1896477.9350964525
1334,21566190.768963106
1359,0.0
1399,0.0
2,1, 1,12, 0,14, 0.00,60.00,Sunday
9,-11.438126231914245
2,1, 1,12, 0,15, 0.00,60.00,Sunday
7,-9.8
8,-10.839810800675263
659,22.000824181576707
11,3462130.1454357062
95,156848.65978789877
133,2524725.490616589
169,71802.02715767492
206,271611.73656886193
243,55971.17179217984
280,52175.161205090524
317,0.0
354,0.0
465,24463851.744024877
513,1757546.867703995
1334,20907996.58624154
1359,0.0
1399,0.0
2,1, 1,12, 0,15, 0.00,60.00,Sunday
9,-10.839810800675263
2,1, 1,12, 0,16, 0.00,60.00,Sunday
7,-9.3
8,-10.26873986632781
659,22.001314868070452
11,3689182.424620603
95,271871.0102990245
133,2633659.9518394377
169,68531.3434485745
206,275305.33959165344
243,51970.93899067497
280,49445.41601578309
317,0.0
354,0.0
465,24510266.984810326
513,1874248.8595692539
1334,20931025.916492604
1359,0.0
1399,0.0
2,1, 1,12, 0,16, 0.00,60.00,Sunday
9,-10.26873986632781
2,1, 1,12, 0,17, 0.00,60.00,Sunday
7,-9.0
8,-9.631936030197465
659,22.000738101365197
11,4439151.055606835
95,585568.329874822
133,3052358.89628899
169,71802.02715767492
206,290343.58047016273
243,53971.055391427355
280,47740.40167041126
317,0.0
354,0.0
465,25587226.743188262
513,2322975.921478171
1334,21313464.168688554
1359,0.0
1399,0.0
2,1, 1,12, 0,17, 0.00,60.00,Sunday
9,-9.631936030197465
2,1, 1,12, 0,18, 0.00,60.00,Sunday
7,-9.0
8,-9.5608035705968
659,22.00098301988811
11,5222615.322871931
95,815613.0308970734
133,3656383.4267305257
169,94639.43270542756
206,318441.34632211406
243,51970.93899067497
280,46715.67082647567
317,0.0
354,0.0
465,24798584.79614531
513,3088933.389152113
1334,19371202.40569503
1359,0.0
1399,0.0
2,1, 1,12, 0,18, 0.00,60.00,Sunday
9,-9.5608035705968
2,1, 1,12, 0,19, 0.00,60.00,Sunday
7,-9.1
8,-10.008556105180014
659,22.00101161326691
11,5980423.835032699
95,1097940.6185152913
133,4004673.0667172875
169,166460.58666841884
206,327807.2682727643
243,51970.93899067497
280,44330.37297966761
317,0.0
354,0.0
465,23551193.6631243
513,2624965.7872353313
1334,18164650.327173386
1359,0.0
1399,0.0
2,1, 1,12, 0,19, 0.00,60.00,Sunday
9,-10.008556105180014
2,1, 1,12, 0,20, 0.00,60.00,Sunday
7,-9.4
8,-10.742193848268183
659,22.00053170826041
11,6284249.011962547
95,1216765.360778851
133,4150243.479685992
169,212154.52456924066
206,318441.34632211406
243,51970.93899067497
280,43650.08947823131
317,0.0
354,0.0
465,24200323.545945212
513,1882795.5296278403
1334,19456864.797846716
1359,0.0
1399,0.0
2,1, 1,12, 0,20, 0.00,60.00,Sunday
9,-10.742193848268183
2,1, 1,12, 0,21, 0.00,60.00,Sunday
7,-10.1
8,-11.31333528157844
659,22.001272125229193
11,6356262.77384709
95,1216765.360778851
133,4224217.7688835785
169,172982.8272813029
206,309075.4243714635
243,51970.93899067497
280,45010.656481103826
317,0.0
354,0.0
465,23615895.373745665
513,1596336.5856489816
1334,19388230.326712765
1359,0.0
1399,0.0
2,1, 1,12, 0,21, 0.00,60.00,Sunday
9,-11.31333528157844
2,1, 1,12, 0,22, 0.00,60.00,Sunday
7,-10.9
8,-12.205826279051855
659,22.000511106083366
11,5967916.9303565845
95,920178.804089006
133,4087454.979919541
169,127288.88938048104
206,303403.1054436047
243,49970.82258992248
280,46715.67082647567
317,0.0
354,0.0
465,24978459.77822062
513,1488115.634091579
1334,21183763.85686566
1359,0.0
1399,0.0
2,1, 1,12, 0,22, 0.00,60.00,Sunday
9,-12.205826279051855
2,1, 1,12, 0,23, 0.00,60.00,Sunday
7,-12.1
8,-13.098383856871454
659,22.000745091957995
11,5013398.548649041
95,512372.28864046925
133,3527470.9569711694
169,84846.50838344306
206,290343.58047016273
243,33980.58719353241
280,37510.31559818029
317,0.0
354,0.0
465,24824663.295939982
513,1152143.2788736224
1334,21950957.336553603
1359,0.0
1399,0.0
2,1, 1,12, 0,23, 0.00,60.00,Sunday
9,-13.098383856871454
2,1, 1,12, 0,24, 0.00,60.00,Sunday
7,-13.5
8,-14.428912969801702
659,22.00051481786874
11,4260970.3511856375
95,209131.546383865
133,3045949.834236347
169,58738.41912658998
206,271611.73656886193
243,17990.35179714245
280,20460.17214446194
317,0.0
354,0.0
465,25130738.149057146
513,716125.7237120039
1334,23307880.02655016
1359,0.0
1399,0.0
2,1, 1,12, 0,24, 0.00,60.00,Sunday
9,-14.428912969801702
End of Data
 Number of Records Written=         432
